
Running Job 1 of 1 C_FePBstar_enol_L_ccL_3sextet_camb3lyo_augccpVDZ_pcmH2O_tddft100.in
qchem C_FePBstar_enol_L_ccL_3sextet_camb3lyo_augccpVDZ_pcmH2O_tddft100.in_2960467.0 /data/scratch/C_FePBstar_enol_L_ccL_3sextet_camb3lyo_augccpVDZ_pcmH2O_tddft10020240227112750/ 0
/opt/qchem/6.0.1/exe/qcprog.exe_s C_FePBstar_enol_L_ccL_3sextet_camb3lyo_augccpVDZ_pcmH2O_tddft100.in_2960467.0 /data/scratch/C_FePBstar_enol_L_ccL_3sextet_camb3lyo_augccpVDZ_pcmH2O_tddft10020240227112750/
                  Welcome to Q-Chem
     A Quantum Leap Into The Future Of Chemistry


 Q-Chem 6.0, Q-Chem, Inc., Pleasanton, CA (2022)

 E. Epifanovsky,  A. T. B. Gilbert,  Xintian Feng,  Joonho Lee,  Yuezhi Mao,  
 N. Mardirossian,  P. Pokhilko,  A. White,  M. Wormit,  M. P. Coons,  
 A. L. Dempwolff,  Zhengting Gan,  D. Hait,  P. R. Horn,  L. D. Jacobson,  
 I. Kaliman,  J. Kussmann,  A. W. Lange,  Ka Un Lao,  D. S. Levine,  Jie Liu,  
 S. C. McKenzie,  A. F. Morrison,  K. Nanda,  F. Plasser,  D. R. Rehn,  
 M. L. Vidal,  Zhi-Qiang You,  Ying Zhu,  B. Alam,  B. Albrecht,  
 A. Aldossary,  E. Alguire,  J. H. Andersen,  V. Athavale,  D. Barton,  
 K. Begam,  A. Behn,  N. Bellonzi,  Y. A. Bernard,  E. J. Berquist,  
 H. Burton,  A. Carreras,  K. Carter-Fenk,  Romit Chakraborty,  
 Chandrima Chakravarty,  Junhan Chen,  A. D. Chien,  K. D. Closser,  
 V. Cofer-Shabica,  L. Cunha,  S. Dasgupta,  Jia Deng,  M. de Wergifosse,  
 M. Diedenhofen,  Hainam Do,  S. Ehlert,  Po-Tung Fang,  S. Fatehi,  
 Qingguo Feng,  T. Friedhoff,  B. Ganoe,  J. Gayvert,  Qinghui Ge,  
 G. Gidofalvi,  M. Goldey,  J. Gomes,  C. Gonzalez-Espinoza,  S. Gulania,  
 A. Gunina,  J. A. Gyamfi,  M. W. D. Hanson-Heine,  P. H. P. Harbach,  
 A. W. Hauser,  M. F. Herbst,  M. Hernandez Vera,  M. Hodecker,  
 Z. C. Holden,  S. Houck,  Xunkun Huang,  Kerwin Hui,  B. C. Huynh,  
 K. Ikeda,  M. Ivanov,  Hyunjun Ji,  Zuxin Jin,  Hanjie Jiang,  B. Kaduk,  
 S. Kaehler,  R. Kang,  K. Khistyaev,  Jaehoon Kim,  Yongbin Kim,  
 P. Klunzinger,  Z. Koczor-Benda,  Joong Hoon Koh,  D. Kosenkov,  
 Saikiran Kotaru,  L. Koulias,  T. Kowalczyk,  C. M. Krauter,  K. Kue,  
 A. Kunitsa,  T. Kus,  A. Landau,  K. V. Lawler,  D. Lefrancois,  S. Lehtola,  
 Rain Li,  Shaozhi Li,  Yi-Pei Li,  Jiashu Liang,  M. Liebenthal,  
 Hung-Hsuan Lin,  You-Sheng Lin,  Fenglai Liu,  Kuan-Yu Liu,  
 M. Loipersberger,  A. Luenser,  C. Malbon,  A. Manjanath,  P. Manohar,  
 E. Mansoor,  S. F. Manzer,  Shan-Ping Mao,  A. V. Marenich,  T. Markovich,  
 S. Mason,  F. Matz,  S. A. Maurer,  P. F. McLaughlin,  M. F. S. J. Menger,  
 J.-M. Mewes,  S. A. Mewes,  P. Morgante,  Mohammad Mostafanejad,  
 J. W. Mullinax,  K. J. Oosterbaan,  G. Paran,  V. Parravicini,  
 Alexander C. Paul,  Suranjan K. Paul,  F. Pavosevic,  Zheng Pei,  S. Prager,  
 E. I. Proynov,  E. Ramos,  B. Rana,  A. E. Rask,  A. Rettig,  R. M. Richard,  
 F. Rob,  E. Rossomme,  T. Scheele,  M. Scheurer,  M. Schneider,  
 P. E. Schneider,  N. Sergueev,  S. M. Sharada,  Hengyuan Shen,  
 W. Skomorowski,  D. W. Small,  C. J. Stein,  Yingli Su,  Yu-Chuan Su,  
 E. J. Sundstrom,  Zhen Tao,  J. Thirman,  Hung-Yi Tsai,  T. Tsuchimochi,  
 N. M. Tubman,  C. Utku,  S. P. Veccham,  O. Vydrov,  J. Wenzel,  
 Jonathan Wong,  J. Witte,  A. Yamada,  Chou-Hsun Yang,  Kun Yao,  
 S. Yeganeh,  S. R. Yost,  A. Zech,  F. Zeller,  Igor Ying Zhang,  
 Xing Zhang,  Yu Zhang,  D. Zuev,  A. Aspuru-Guzik,  A. T. Bell,  
 N. A. Besley,  K. B. Bravaya,  B. R. Brooks,  D. Casanova,  Jeng-Da Chai,  
 Hsing-Ta Chen,  S. Coriani,  C. J. Cramer,  A. E. DePrince, III,  
 R. A. DiStasio Jr.,  A. Dreuw,  B. D. Dunietz,  T. R. Furlani,  
 W. A. Goddard III,  S. Grimme,  S. Hammes-Schiffer,  T. Head-Gordon,  
 W. J. Hehre,  Chao-Ping Hsu,  T.-C. Jagau,  Yousung Jung,  A. Klamt,  
 Jing Kong,  D. S. Lambrecht,  Xiangyuan Li,  WanZhen Liang,  N. J. Mayhall,  
 C. W. McCurdy,  J. B. Neaton,  T. Neudecker,  C. Ochsenfeld,  
 J. A. Parkhill,  R. Peverati,  V. A. Rassolov,  Haisheng Ren,  Yihan Shao,  
 L. V. Slipchenko,  R. P. Steele,  J. E. Subotnik,  A. J. W. Thom,  
 A. Tkatchenko,  D. G. Truhlar,  T. Van Voorhis,  Fan Wang,  
 T. A. Wesolowski,  K. B. Whaley,  H. L. Woodcock III,  P. M. Zimmerman,  
 S. Faraji,  P. M. W. Gill,  M. Head-Gordon,  J. M. Herbert,  A. I. Krylov

 Contributors to earlier versions of Q-Chem not listed above: 
 R. D. Adamson,  B. Austin,  R. Baer,  J. Baker,  G. J. O. Beran,  
 K. Brandhorst,  S. T. Brown,  E. F. C. Byrd,  Arup K. Chakraborty,  
 G. K. L. Chan,  Chun-Min Chang,  Yunqing Chen,  C.-L. Cheng,  
 Siu Hung Chien,  D. M. Chipman,  D. L. Crittenden,  H. Dachsel,  
 R. J. Doerksen,  A. D. Dutoi,  R. G. Edgar,  J. Fosso-Tande,  
 L. Fusti-Molnar,  D. Ghosh,  A. Ghysels,  A. Golubeva-Zadorozhnaya,  
 J. Gonthier,  M. S. Gordon,  S. R. Gwaltney,  G. Hawkins,  J. E. Herr,  
 A. Heyden,  S. Hirata,  E. G. Hohenstein,  G. Kedziora,  F. J. Keil,  
 C. Kelley,  Jihan Kim,  R. A. King,  R. Z. Khaliullin,  P. P. Korambath,  
 W. Kurlancheek,  A. Laurent,  A. M. Lee,  M. S. Lee,  S. V. Levchenko,  
 Ching Yeh Lin,  D. Liotard,  E. Livshits,  R. C. Lochan,  I. Lotan,  
 L. A. Martinez-Martinez,  P. E. Maslen,  N. Nair,  D. P. O'Neill,  
 D. Neuhauser,  E. Neuscamman,  C. M. Oana,  R. Olivares-Amaya,  R. Olson,  
 T. M. Perrine,  B. Peters,  P. A. Pieniazek,  A. Prociuk,  Y. M. Rhee,  
 J. Ritchie,  M. A. Rohrdanz,  E. Rosta,  N. J. Russ,  H. F. Schaefer III,  
 M. W. Schmidt,  N. E. Schultz,  S. Sharma,  N. Shenvi,  C. D. Sherrill,  
 A. C. Simmonett,  A. Sodt,  T. Stein,  D. Stuck,  K. S. Thanthiriwatte,  
 V. Vanovschi,  L. Vogt,  Tao Wang,  A. Warshel,  M. A. Watson,  
 C. F. Williams,  Q. Wu,  X. Xu,  Jun Yang,  W. Zhang,  Yan Zhao

   Please cite Q-Chem as follows:
  "Software for the frontiers of quantum chemistry:
   An overview of developments in the Q-Chem 5 package"
   J. Chem. Phys. 155, 084801 (2021)
   https://doi.org/10.1063/5.0055522 (open access)

 Q-Chem 6.0.2 for Intel X86 EM64T Linux

 Parts of Q-Chem use Armadillo 9.900.5 (Nocturnal Misbehaviour).
 http://arma.sourceforge.net/

 Q-Chem begins on Tue Feb 27 11:27:52 2024  

 Host: 
0

     Scratch files written to /data/scratch/C_FePBstar_enol_L_ccL_3sextet_camb3lyo_augccpVDZ_pcmH2O_tddft10020240227112750//
 Dec722 |scratch|qcdevops|jenkins|workspace|build_RNUM 8907   
 Processing $rem in /opt/qchem/6.0.1/config/preferences:
 Processing $rem in /home/sgardner/.qchemrc:
 Symmetry turned off for PCM/SM12/SMD calculation

 Checking the input file for inconsistencies... 	...done.

--------------------------------------------------------------
User input:
--------------------------------------------------------------
$molecule
-2 6
C    2.7399108   -2.2186910    0.2948492
C    4.0039479   -2.6753144    0.7064942
C    5.1315610   -2.4824477   -0.1012268
C    5.0188722   -1.8380638   -1.3444661
C    3.7375946   -1.4422142   -1.8001103
C    2.5985980   -1.6225420   -1.0128470
H    4.0998955   -3.1469553    1.6883956
O    1.3748805   -1.2232949   -1.3492061
C    6.1938853   -1.4321697   -2.1659319
O    6.0667562   -0.9676935   -3.3118913
N    7.4269451   -1.5535530   -1.5803091
H    7.4489642   -1.7582995   -0.5885167
C    8.6129703   -0.9029741   -2.1176363
H    9.4475723   -1.6242985   -2.1432602
H    8.3776983   -0.6310990   -3.1554271
C    9.0321761    0.3429008   -1.3210657
H    9.9406559    0.7451404   -1.8008963
H    9.3319020    0.0471878   -0.2997333
C    7.9501947    1.4573044   -1.2332633
H    7.0945449    1.1869391   -1.8739714
H    8.3670070    2.3912907   -1.6427597
N    7.4242238    1.7788431    0.0981418
H    8.1981338    2.0761022    0.6972501
C    5.9995148    1.1235966    2.0311966
H    5.4963406    0.2325522    2.4475456
H    6.7462146    1.4408990    2.7812049
C    6.7150319    0.6833240    0.7522971
H    7.3700376   -0.1796499    1.0046055
H    5.9796184    0.2898255    0.0360864
C    4.9650273    2.2433883    1.8383183
H    4.3749695    2.3591929    2.7626729
H    5.4815049    3.2011837    1.6619347
C    4.0060551    1.9519481    0.6757418
H    3.8339959    0.8719655    0.5874433
H    4.4576823    2.2924240   -0.2711211
N    2.6856800    2.5594787    0.8111506
H    2.5959635    3.5494400    0.6084695
C    1.5446077    1.8155615    0.7447697
O    1.6472920    0.5543870    0.8295692
C    0.2878804    2.5031058    0.5796473
H    0.2468141    3.5785119    0.7558486
C   -2.1566614    2.5996851   -0.0018115
H   -2.7734760    2.2236103    0.8336364
H   -2.0133283    3.6792225    0.1248545
C   -2.9109309    2.3631635   -1.3057738
O   -3.0911350    3.2702690   -2.1270166
N   -3.3645264    1.0964854   -1.4755069
C   -3.8718453    0.6064332   -2.7525094
H   -3.0075397    0.4037522   -0.8202111
C   -5.3677447    0.2882899   -2.7363357
H   -3.3014137   -0.2990942   -3.0166630
H   -3.6561135    1.3790133   -3.5050958
C   -6.2562766    1.5053991   -2.4733882
H   -5.6307770   -0.1505314   -3.7167343
H   -5.5660400   -0.4909055   -1.9826847
C   -7.7540957    1.1555972   -2.4578065
H   -6.0775065    2.2693497   -3.2513801
H   -5.9706570    1.9643665   -1.5118118
H   -8.3436872    2.0887335   -2.4161502
H   -8.0119264    0.6631785   -3.4129447
C   -6.1401666   -1.7310493    0.6839985
C   -4.7396196   -1.5334345    1.1397677
O   -6.4059347   -2.0980592   -0.4802100
C   -4.4074110   -0.9007863    2.3499044
C   -3.6953700   -1.9496992    0.2760507
C   -3.0701343   -0.6803375    2.6994935
C   -2.3552950   -1.7390080    0.6017159
C   -2.0255000   -1.0811861    1.8475076
H   -2.8194097   -0.1642999    3.6303186
O   -1.3271649   -2.0800582   -0.1736290
C   -0.8259675    1.8491580    0.0796775
O   -0.8605427    0.6283745   -0.3280602
H    3.6557812   -0.9356305   -2.7633624
O    1.6529784   -2.2670612    1.0441808
H   -3.9530753   -2.4324472   -0.6681367
O   -0.7480386   -0.8730969    2.0916052
Fe    0.2699528   -0.9876975    0.3231270
N   -8.2232979    0.2887572   -1.3730524
H   -7.6920783   -0.5865328   -1.3859653
N   -7.1356587   -1.4881515    1.5827993
H   -6.8803373   -1.1630849    2.5068234
C   -8.5294413   -1.3351936    1.1961460
H   -8.6715590   -1.9012225    0.2660682
H   -9.1658886   -1.7953628    1.9677568
C   -8.9301033    0.1345465    0.9972202
H   -9.9900720    0.1626862    0.6906924
H   -8.8521626    0.6637987    1.9636449
C   -8.0865879    0.8791086   -0.0403577
H   -8.4392599    1.9236755   -0.0945863
H   -7.0355463    0.9287472    0.3135290
H   -5.1795752   -0.5321482    3.0283439
H    6.0990107   -2.8259839    0.2707961
$end

$rem
BASIS  =  gen
CIS_N_ROOTS  =  100
EXCHANGE  =  CAM-B3LYP
GUI  =  2
JOB_TYPE  =  SP
SCF_CONVERGENCE  =  8
SOLVENT_METHOD  =  PCM
UNRESTRICTED  =  1
BASIS GEN
PURECART 11
MEM_TOTAL  =  30000
$end

$pcm
THEORY  CPCM
$end

$solvent
DIELECTRIC  78.39
$end

$van_der_waals
26   2.44
$end

!----------------------------------------------------------------------
! Basis Set Exchange
! Basis set: aug-cc-pVDZ
!----------------------------------------------------------------------

$basis
H     0
S   4   1.00
1.301000D+01           1.968500D-02
1.962000D+00           1.379770D-01
4.446000D-01           4.781480D-01
1.220000D-01           5.012400D-01
S   1   1.00
1.220000D-01           1.000000D+00
S   1   1.00
0.0297400              1.0000000
P   1   1.00
7.270000D-01           1.0000000
P   1   1.00
0.1410000              1.0000000
****
C     0
S   9   1.00
6.665000D+03           6.920000D-04
1.000000D+03           5.329000D-03
2.280000D+02           2.707700D-02
6.471000D+01           1.017180D-01
2.106000D+01           2.747400D-01
7.495000D+00           4.485640D-01
2.797000D+00           2.850740D-01
5.215000D-01           1.520400D-02
1.596000D-01          -3.191000D-03
S   9   1.00
6.665000D+03          -1.460000D-04
1.000000D+03          -1.154000D-03
2.280000D+02          -5.725000D-03
6.471000D+01          -2.331200D-02
2.106000D+01          -6.395500D-02
7.495000D+00          -1.499810D-01
2.797000D+00          -1.272620D-01
5.215000D-01           5.445290D-01
1.596000D-01           5.804960D-01
S   1   1.00
1.596000D-01           1.000000D+00
S   1   1.00
0.0469000              1.0000000
P   4   1.00
9.439000D+00           3.810900D-02
2.002000D+00           2.094800D-01
5.456000D-01           5.085570D-01
1.517000D-01           4.688420D-01
P   1   1.00
1.517000D-01           1.000000D+00
P   1   1.00
0.0404100              1.0000000
D   1   1.00
5.500000D-01           1.0000000
D   1   1.00
0.1510000              1.0000000
****
N     0
S   9   1.00
9.046000D+03           7.000000D-04
1.357000D+03           5.389000D-03
3.093000D+02           2.740600D-02
8.773000D+01           1.032070D-01
2.856000D+01           2.787230D-01
1.021000D+01           4.485400D-01
3.838000D+00           2.782380D-01
7.466000D-01           1.544000D-02
2.248000D-01          -2.864000D-03
S   9   1.00
9.046000D+03          -1.530000D-04
1.357000D+03          -1.208000D-03
3.093000D+02          -5.992000D-03
8.773000D+01          -2.454400D-02
2.856000D+01          -6.745900D-02
1.021000D+01          -1.580780D-01
3.838000D+00          -1.218310D-01
7.466000D-01           5.490030D-01
2.248000D-01           5.788150D-01
S   1   1.00
2.248000D-01           1.000000D+00
S   1   1.00
0.0612400              1.0000000
P   4   1.00
1.355000D+01           3.991900D-02
2.917000D+00           2.171690D-01
7.973000D-01           5.103190D-01
2.185000D-01           4.622140D-01
P   1   1.00
2.185000D-01           1.000000D+00
P   1   1.00
0.0561100              1.0000000
D   1   1.00
8.170000D-01           1.0000000
D   1   1.00
0.2300000              1.0000000
****
O     0
S   9   1.00
1.172000D+04           7.100000D-04
1.759000D+03           5.470000D-03
4.008000D+02           2.783700D-02
1.137000D+02           1.048000D-01
3.703000D+01           2.830620D-01
1.327000D+01           4.487190D-01
5.025000D+00           2.709520D-01
1.013000D+00           1.545800D-02
3.023000D-01          -2.585000D-03
S   9   1.00
1.172000D+04          -1.600000D-04
1.759000D+03          -1.263000D-03
4.008000D+02          -6.267000D-03
1.137000D+02          -2.571600D-02
3.703000D+01          -7.092400D-02
1.327000D+01          -1.654110D-01
5.025000D+00          -1.169550D-01
1.013000D+00           5.573680D-01
3.023000D-01           5.727590D-01
S   1   1.00
3.023000D-01           1.000000D+00
S   1   1.00
0.0789600              1.0000000
P   4   1.00
1.770000D+01           4.301800D-02
3.854000D+00           2.289130D-01
1.046000D+00           5.087280D-01
2.753000D-01           4.605310D-01
P   1   1.00
2.753000D-01           1.000000D+00
P   1   1.00
0.0685600              1.0000000
D   1   1.00
1.185000D+00           1.0000000
D   1   1.00
0.3320000              1.0000000
****
Fe     0
S   20   1.00
4.316265D+06           8.048803D-06
6.463424D+05           6.258306D-05
1.470897D+05           3.290239D-04
4.166152D+04           1.387355D-03
1.359077D+04           5.023256D-03
4.905750D+03           1.610140D-02
1.912746D+03           4.590034D-02
7.926043D+02           1.136154D-01
3.448065D+02           2.283869D-01
1.558999D+02           3.221159D-01
7.223091D+01           2.383661D-01
3.272506D+01           7.404667D-02
1.566762D+01           9.214197D-02
7.503483D+00           9.339790D-02
3.312223D+00           1.573965D-02
1.558471D+00          -4.186682D-04
6.839140D-01           5.376318D-05
1.467570D-01          -3.816654D-05
7.058300D-02           4.319603D-05
3.144900D-02          -3.401019D-06
S   20   1.00
4.316265D+06          -4.155954D-06
6.463424D+05          -3.231401D-05
1.470897D+05          -1.699525D-04
4.166152D+04          -7.171369D-04
1.359077D+04          -2.603625D-03
4.905750D+03          -8.399109D-03
1.912746D+03          -2.434109D-02
7.926043D+02          -6.251948D-02
3.448065D+02          -1.365929D-01
1.558999D+02          -2.312707D-01
7.223091D+01          -2.383734D-01
3.272506D+01           3.123837D-02
1.566762D+01           5.086818D-01
7.503483D+00           4.987695D-01
3.312223D+00           9.033552D-02
1.558471D+00          -6.005337D-03
6.839140D-01           2.312454D-04
1.467570D-01          -5.643680D-04
7.058300D-02           4.992260D-04
3.144900D-02          -1.015293D-04
S   20   1.00
4.316265D+06           9.532178D-07
6.463424D+05           7.414605D-06
1.470897D+05           3.898393D-05
4.166152D+04           1.647152D-04
1.359077D+04           5.985980D-04
4.905750D+03           1.942390D-03
1.912746D+03           5.687237D-03
7.926043D+02           1.501329D-02
3.448065D+02           3.452455D-02
1.558999D+02           6.495820D-02
7.223091D+01           7.716194D-02
3.272506D+01          -1.873411D-02
1.566762D+01          -3.009185D-01
7.503483D+00          -4.554661D-01
3.312223D+00           1.286463D-01
1.558471D+00           7.183316D-01
6.839140D-01           4.051743D-01
1.467570D-01           2.168227D-02
7.058300D-02          -8.343566D-03
3.144900D-02           3.658979D-03
S   20   1.00
4.316265D+06          -2.063008D-07
6.463424D+05          -1.604169D-06
1.470897D+05          -8.438437D-06
4.166152D+04          -3.563151D-05
1.359077D+04          -1.295998D-04
4.905750D+03          -4.201534D-04
1.912746D+03          -1.231954D-03
7.926043D+02          -3.248922D-03
3.448065D+02          -7.493717D-03
1.558999D+02          -1.410102D-02
7.223091D+01          -1.691600D-02
3.272506D+01           4.218996D-03
1.566762D+01           6.833810D-02
7.503483D+00           1.098201D-01
3.312223D+00          -4.009005D-02
1.558471D+00          -2.174739D-01
6.839140D-01          -2.465135D-01
1.467570D-01           2.731435D-01
7.058300D-02           5.748321D-01
3.144900D-02           3.012713D-01
S   20   1.00
4.316265D+06          -4.009367D-07
6.463424D+05          -3.189255D-06
1.470897D+05          -1.623079D-05
4.166152D+04          -7.157920D-05
1.359077D+04          -2.463958D-04
4.905750D+03          -8.544907D-04
1.912746D+03          -2.307593D-03
7.926043D+02          -6.728292D-03
3.448065D+02          -1.366165D-02
1.558999D+02          -3.062240D-02
7.223091D+01          -2.631137D-02
3.272506D+01          -9.760183D-03
1.566762D+01           1.801906D-01
7.503483D+00           1.529634D-01
3.312223D+00           5.505413D-02
1.558471D+00          -9.551364D-01
6.839140D-01           2.586813D-01
1.467570D-01           1.834049D+00
7.058300D-02          -9.333240D-01
3.144900D-02          -6.981605D-01
S   1   1.00
3.144900D-02           1.000000D+00
S   1   1.00
1.401000D-02           1.000000D+00
P   16   1.00
1.774569D+04           4.100000D-05
4.200721D+03           3.690000D-04
1.364429D+03           2.129000D-03
5.220806D+02           9.369000D-03
2.214595D+02           3.309700D-02
1.009096D+02           9.443100D-02
4.840115D+01           2.080770D-01
2.398536D+01           3.323330D-01
1.218250D+01           3.329870D-01
6.242298D+00           1.568430D-01
3.110944D+00           2.154900D-02
1.509958D+00          -2.095000D-03
7.108450D-01          -1.739000D-03
2.731900D-01          -3.000000D-04
1.042330D-01           2.900000D-05
3.829100D-02          -1.100000D-05
P   16   1.00
1.774569D+04          -1.500000D-05
4.200721D+03          -1.300000D-04
1.364429D+03          -7.510000D-04
5.220806D+02          -3.329000D-03
2.214595D+02          -1.191200D-02
1.009096D+02          -3.493300D-02
4.840115D+01          -7.998900D-02
2.398536D+01          -1.346360D-01
1.218250D+01          -1.385980D-01
6.242298D+00           3.027800D-02
3.110944D+00           3.332160D-01
1.509958D+00           4.561530D-01
7.108450D-01           2.850510D-01
2.731900D-01           4.614400D-02
1.042330D-01          -3.249000D-03
3.829100D-02           1.357000D-03
P   16   1.00
1.774569D+04           5.000000D-06
4.200721D+03           4.200000D-05
1.364429D+03           2.410000D-04
5.220806D+02           1.085000D-03
2.214595D+02           3.831000D-03
1.009096D+02           1.142300D-02
4.840115D+01           2.579200D-02
2.398536D+01           4.481800D-02
1.218250D+01           4.459800D-02
6.242298D+00          -1.117700D-02
3.110944D+00          -1.381340D-01
1.509958D+00          -1.882850D-01
7.108450D-01          -1.073990D-01
2.731900D-01           4.448630D-01
1.042330D-01           6.402390D-01
3.829100D-02           6.445700D-02
P   16   1.00
1.774569D+04           3.000000D-06
4.200721D+03           2.900000D-05
1.364429D+03           1.650000D-04
5.220806D+02           7.340000D-04
2.214595D+02           2.626000D-03
1.009096D+02           7.725000D-03
4.840115D+01           1.773300D-02
2.398536D+01           3.005500D-02
1.218250D+01           3.109400D-02
6.242298D+00          -1.004800D-02
3.110944D+00          -8.830600D-02
1.509958D+00          -1.298240D-01
7.108450D-01          -7.693700D-02
2.731900D-01           2.126610D-01
1.042330D-01           5.730610D-01
3.829100D-02           3.696510D-01
P   1   1.00
3.829100D-02           1.000000D+00
P   1   1.00
1.407000D-02           1.000000D+00
D   8   1.00
1.133440D+02           3.530000D-03
3.364140D+01           2.578400D-02
1.233100D+01           9.911900D-02
4.994780D+00           2.390730D-01
2.072800D+00           3.571990D-01
8.307530D-01           3.621880D-01
3.091780D-01           2.364610D-01
1.001300D-01           6.011800D-02
D   8   1.00
1.133440D+02          -3.890000D-03
3.364140D+01          -2.844200D-02
1.233100D+01          -1.124290D-01
4.994780D+00          -2.742570D-01
2.072800D+00          -3.155460D-01
8.307530D-01           5.710900D-02
3.091780D-01           5.636040D-01
1.001300D-01           3.846370D-01
D   1   1.00
1.001300D-01           1.000000D+00
D   1   1.00
3.243000D-02           1.000000D+00
F   2   1.00
3.224300D+00           4.222490D-01
7.758000D-01           7.714680D-01
F   1   1.00
2.749000D-01           1.000000D+00
****
$end


--------------------------------------------------------------
 ----------------------------------------------------------------
             Standard Nuclear Orientation (Angstroms)
    I     Atom           X                Y                Z
 ----------------------------------------------------------------
    1      C       2.7399108000    -2.2186910000     0.2948492000
    2      C       4.0039479000    -2.6753144000     0.7064942000
    3      C       5.1315610000    -2.4824477000    -0.1012268000
    4      C       5.0188722000    -1.8380638000    -1.3444661000
    5      C       3.7375946000    -1.4422142000    -1.8001103000
    6      C       2.5985980000    -1.6225420000    -1.0128470000
    7      H       4.0998955000    -3.1469553000     1.6883956000
    8      O       1.3748805000    -1.2232949000    -1.3492061000
    9      C       6.1938853000    -1.4321697000    -2.1659319000
   10      O       6.0667562000    -0.9676935000    -3.3118913000
   11      N       7.4269451000    -1.5535530000    -1.5803091000
   12      H       7.4489642000    -1.7582995000    -0.5885167000
   13      C       8.6129703000    -0.9029741000    -2.1176363000
   14      H       9.4475723000    -1.6242985000    -2.1432602000
   15      H       8.3776983000    -0.6310990000    -3.1554271000
   16      C       9.0321761000     0.3429008000    -1.3210657000
   17      H       9.9406559000     0.7451404000    -1.8008963000
   18      H       9.3319020000     0.0471878000    -0.2997333000
   19      C       7.9501947000     1.4573044000    -1.2332633000
   20      H       7.0945449000     1.1869391000    -1.8739714000
   21      H       8.3670070000     2.3912907000    -1.6427597000
   22      N       7.4242238000     1.7788431000     0.0981418000
   23      H       8.1981338000     2.0761022000     0.6972501000
   24      C       5.9995148000     1.1235966000     2.0311966000
   25      H       5.4963406000     0.2325522000     2.4475456000
   26      H       6.7462146000     1.4408990000     2.7812049000
   27      C       6.7150319000     0.6833240000     0.7522971000
   28      H       7.3700376000    -0.1796499000     1.0046055000
   29      H       5.9796184000     0.2898255000     0.0360864000
   30      C       4.9650273000     2.2433883000     1.8383183000
   31      H       4.3749695000     2.3591929000     2.7626729000
   32      H       5.4815049000     3.2011837000     1.6619347000
   33      C       4.0060551000     1.9519481000     0.6757418000
   34      H       3.8339959000     0.8719655000     0.5874433000
   35      H       4.4576823000     2.2924240000    -0.2711211000
   36      N       2.6856800000     2.5594787000     0.8111506000
   37      H       2.5959635000     3.5494400000     0.6084695000
   38      C       1.5446077000     1.8155615000     0.7447697000
   39      O       1.6472920000     0.5543870000     0.8295692000
   40      C       0.2878804000     2.5031058000     0.5796473000
   41      H       0.2468141000     3.5785119000     0.7558486000
   42      C      -2.1566614000     2.5996851000    -0.0018115000
   43      H      -2.7734760000     2.2236103000     0.8336364000
   44      H      -2.0133283000     3.6792225000     0.1248545000
   45      C      -2.9109309000     2.3631635000    -1.3057738000
   46      O      -3.0911350000     3.2702690000    -2.1270166000
   47      N      -3.3645264000     1.0964854000    -1.4755069000
   48      C      -3.8718453000     0.6064332000    -2.7525094000
   49      H      -3.0075397000     0.4037522000    -0.8202111000
   50      C      -5.3677447000     0.2882899000    -2.7363357000
   51      H      -3.3014137000    -0.2990942000    -3.0166630000
   52      H      -3.6561135000     1.3790133000    -3.5050958000
   53      C      -6.2562766000     1.5053991000    -2.4733882000
   54      H      -5.6307770000    -0.1505314000    -3.7167343000
   55      H      -5.5660400000    -0.4909055000    -1.9826847000
   56      C      -7.7540957000     1.1555972000    -2.4578065000
   57      H      -6.0775065000     2.2693497000    -3.2513801000
   58      H      -5.9706570000     1.9643665000    -1.5118118000
   59      H      -8.3436872000     2.0887335000    -2.4161502000
   60      H      -8.0119264000     0.6631785000    -3.4129447000
   61      C      -6.1401666000    -1.7310493000     0.6839985000
   62      C      -4.7396196000    -1.5334345000     1.1397677000
   63      O      -6.4059347000    -2.0980592000    -0.4802100000
   64      C      -4.4074110000    -0.9007863000     2.3499044000
   65      C      -3.6953700000    -1.9496992000     0.2760507000
   66      C      -3.0701343000    -0.6803375000     2.6994935000
   67      C      -2.3552950000    -1.7390080000     0.6017159000
   68      C      -2.0255000000    -1.0811861000     1.8475076000
   69      H      -2.8194097000    -0.1642999000     3.6303186000
   70      O      -1.3271649000    -2.0800582000    -0.1736290000
   71      C      -0.8259675000     1.8491580000     0.0796775000
   72      O      -0.8605427000     0.6283745000    -0.3280602000
   73      H       3.6557812000    -0.9356305000    -2.7633624000
   74      O       1.6529784000    -2.2670612000     1.0441808000
   75      H      -3.9530753000    -2.4324472000    -0.6681367000
   76      O      -0.7480386000    -0.8730969000     2.0916052000
   77      Fe      0.2699528000    -0.9876975000     0.3231270000
   78      N      -8.2232979000     0.2887572000    -1.3730524000
   79      H      -7.6920783000    -0.5865328000    -1.3859653000
   80      N      -7.1356587000    -1.4881515000     1.5827993000
   81      H      -6.8803373000    -1.1630849000     2.5068234000
   82      C      -8.5294413000    -1.3351936000     1.1961460000
   83      H      -8.6715590000    -1.9012225000     0.2660682000
   84      H      -9.1658886000    -1.7953628000     1.9677568000
   85      C      -8.9301033000     0.1345465000     0.9972202000
   86      H      -9.9900720000     0.1626862000     0.6906924000
   87      H      -8.8521626000     0.6637987000     1.9636449000
   88      C      -8.0865879000     0.8791086000    -0.0403577000
   89      H      -8.4392599000     1.9236755000    -0.0945863000
   90      H      -7.0355463000     0.9287472000     0.3135290000
   91      H      -5.1795752000    -0.5321482000     3.0283439000
   92      H       6.0990107000    -2.8259839000     0.2707961000
 ----------------------------------------------------------------
 Nuclear Repulsion Energy =        7398.56244732 hartrees
 There are      194 alpha and      189 beta electrons
 Requested basis set is non-standard
 There are 666 shells and 1550 basis functions

 Total QAlloc Memory Limit  30000 MB
 Mega-Array Size       188 MB
 MEM_STATIC part       192 MB

 Using C-PCM dielectric factor f(eps) = (eps-1)/eps = 0.987243
No default van der Waals radius is available for Z = 26
	Found R = 2.4400 A in the $van_der_waals section
 Discretize the solute cavity surface with Lebedev spheres
	Using 110 Lebedev grid points for each H atom
	Using 194 Lebedev grid points for other atoms
	Atomic van der Waals radii (Bondi set) will be scaled by 1.20
 Using smooth SwiG surface discretization
 Remove points where switching function is < 1.0e-08
 Keep 5408 surface tesserae and discard 8828 interior tesserae
 Molecular Surface Area = 668.293 Angst**2

 A cutoff of  1.0D-12 yielded 161495 shell pairs
 There are    823887 function pairs (    931980 Cartesian)
 Smallest overlap matrix eigenvalue = 4.17E-07
 Linear dependence detected in AO basis
 Tighter screening thresholds may be required for diffuse basis sets
 Use S2THRESH > 14 and THRESH = 14 in case of SCF convergence issues
 Number of orthogonalized atomic orbitals = 1544
 Maximum deviation from orthogonality = 2.541E-10

 Scale SEOQF with 1.000000e-02/1.000000e-01/1.000000e-01

 Standard Electronic Orientation quadrupole field applied
 Nucleus-field energy     =     0.0000000133 hartrees
 ================ Generating on-the-fly SAD Guess ================
 Attempting to make child job directory: /data/scratch/C_FePBstar_enol_L_ccL_3sextet_camb3lyo_augccpVDZ_pcmH2O_tddft10020240227112750//Frg1/
 Attempting to make child job directory: /data/scratch/C_FePBstar_enol_L_ccL_3sextet_camb3lyo_augccpVDZ_pcmH2O_tddft10020240227112750//Frg2/
 Attempting to make child job directory: /data/scratch/C_FePBstar_enol_L_ccL_3sextet_camb3lyo_augccpVDZ_pcmH2O_tddft10020240227112750//Frg3/
 Attempting to make child job directory: /data/scratch/C_FePBstar_enol_L_ccL_3sextet_camb3lyo_augccpVDZ_pcmH2O_tddft10020240227112750//Frg4/
 Attempting to make child job directory: /data/scratch/C_FePBstar_enol_L_ccL_3sextet_camb3lyo_augccpVDZ_pcmH2O_tddft10020240227112750//Frg5/
 Creating input file /data/scratch/C_FePBstar_enol_L_ccL_3sextet_camb3lyo_augccpVDZ_pcmH2O_tddft10020240227112750/Frg1.input
 using default PutDataFrgm: nothing
 calling putenv with: QCSCRATCH=/data/scratch/C_FePBstar_enol_L_ccL_3sextet_camb3lyo_augccpVDZ_pcmH2O_tddft10020240227112750/ 
 Spawning Job For Fragment 0
 Done Job For Fragment 0
 calling putenv with: QCSCRATCH=/data/scratch 
 calling putenv with: QCTHREADS=20 
 Creating input file /data/scratch/C_FePBstar_enol_L_ccL_3sextet_camb3lyo_augccpVDZ_pcmH2O_tddft10020240227112750/Frg2.input
 using default PutDataFrgm: nothing
 calling putenv with: QCSCRATCH=/data/scratch/C_FePBstar_enol_L_ccL_3sextet_camb3lyo_augccpVDZ_pcmH2O_tddft10020240227112750/ 
 Spawning Job For Fragment 1
 Done Job For Fragment 1
 calling putenv with: QCSCRATCH=/data/scratch 
 calling putenv with: QCTHREADS=20 
 Creating input file /data/scratch/C_FePBstar_enol_L_ccL_3sextet_camb3lyo_augccpVDZ_pcmH2O_tddft10020240227112750/Frg3.input
 using default PutDataFrgm: nothing
 calling putenv with: QCSCRATCH=/data/scratch/C_FePBstar_enol_L_ccL_3sextet_camb3lyo_augccpVDZ_pcmH2O_tddft10020240227112750/ 
 Spawning Job For Fragment 2
 Done Job For Fragment 2
 calling putenv with: QCSCRATCH=/data/scratch 
 calling putenv with: QCTHREADS=20 
 Creating input file /data/scratch/C_FePBstar_enol_L_ccL_3sextet_camb3lyo_augccpVDZ_pcmH2O_tddft10020240227112750/Frg4.input
 using default PutDataFrgm: nothing
 calling putenv with: QCSCRATCH=/data/scratch/C_FePBstar_enol_L_ccL_3sextet_camb3lyo_augccpVDZ_pcmH2O_tddft10020240227112750/ 
 Spawning Job For Fragment 3
 Done Job For Fragment 3
 calling putenv with: QCSCRATCH=/data/scratch 
 calling putenv with: QCTHREADS=20 
 Creating input file /data/scratch/C_FePBstar_enol_L_ccL_3sextet_camb3lyo_augccpVDZ_pcmH2O_tddft10020240227112750/Frg5.input
 using default PutDataFrgm: nothing
 calling putenv with: QCSCRATCH=/data/scratch/C_FePBstar_enol_L_ccL_3sextet_camb3lyo_augccpVDZ_pcmH2O_tddft10020240227112750/ 
 Spawning Job For Fragment 4
 Done Job For Fragment 4
 calling putenv with: QCSCRATCH=/data/scratch 
 calling putenv with: QCTHREADS=20 
 Time for running child jobs:  CPU 0.03 s  wall 123.09 s
 ============= Method Specific SAD Guess Constructed =============
 Guess from on-the-fly superposition of atomic densities
 Warning: Energy on first SCF cycle will be non-variational

 -----------------------------------------------------------------------
  General SCF calculation program by
  Eric Jon Sundstrom, Paul Horn, Yuezhi Mao, Dmitri Zuev, Alec White,
  David Stuck, Shaama M.S., Shane Yost, Joonho Lee, David Small,
  Daniel Levine, Susi Lehtola, Hugh Burton, Evgeny Epifanovsky,
  Bang C. Huynh
 -----------------------------------------------------------------------
 Exchange:     0.1900 Hartree-Fock + 0.3500 B88 + 0.4600 muB88 + LR-HF
 Correlation:  0.1900 VWN5 + 0.8100 LYP
 Using SG-1 standard quadrature grid
 using 20 threads for integral computing
 -------------------------------------------------------
 OpenMP Integral computing Module                
 Release: version 1.0, May 2013, Q-Chem Inc. Pittsburgh 
 -------------------------------------------------------
 C-PCM solvent model [f = (eps-1)/eps], solve by matrix inversion
 A unrestricted SCF calculation will be
 performed using DIIS
 SCF converges when DIIS error is below 1.0e-08
 ---------------------------------------
  Cycle       Energy         DIIS error
 ---------------------------------------
    1   -3580.5687010066      9.18e-03  
    2   -3551.2893687265      1.00e-03  
    3   -3550.5086445274      1.62e-03  
    4   -3552.2867006565      5.25e-04  
    5   -3552.4750889430      1.36e-04  
    6   -3552.4918317811      8.13e-05  
    7   -3552.4991764813      1.99e-05  
    8   -3552.5000522417      1.25e-05  
    9   -3552.5003377803      5.53e-06  
   10   -3552.5004049435      2.20e-06  
   11   -3552.5004208593      1.06e-06  
   12   -3552.5004268714      5.52e-07  
   13   -3552.5004288408      3.12e-07  
   14   -3552.5004295983      1.74e-07  
   15   -3552.5004298042      1.14e-07  
   16   -3552.5004298903      6.21e-08  
   17   -3552.5004299285      4.22e-08  
   18   -3552.5004299394      2.60e-08  
   19   -3552.5004299422      1.16e-08  
   20   -3552.5004299400      7.49e-09  Convergence criterion met
 ---------------------------------------
 SCF time:   CPU 540001.78s  wall 32391.00s 
<S^2> =          8.757573622

************** Final PCM Free Energy Summary **************
 G_electrostatic  =      -0.29830283 hartree =    -187.18785176 kcal/mol
 G_cavitation     =       0.00000000 hartree =       0.00000000 kcal/mol
 G_dispersion     =       0.00000000 hartree =       0.00000000 kcal/mol
 G_repulsion      =       0.00000000 hartree =       0.00000000 kcal/mol
 --------------------------------------------------
 Non-electrostatic Free Energy =       0.00000000 hartree =       0.00000000 kcal/mol
 Total                         =      -0.29830283 hartree =    -187.18785176 kcal/mol
 --------------------------------------------------
 SCF Energy (H0 + V/2)                       =   -3552.50042994 
 Solute Internal Energy (H0)                 =   -3552.20212711 
 Total Free Energy (H0 + V/2 + non-elec)     =   -3552.50042994 hartree
                                             = -2229227.66551892 kcal/mol
***********************************************************

 SCF   energy in the final basis set =    -3552.5004299400
 Total energy in the final basis set =    -3552.5004299400
 
 MAX_CIS_SUBSPACE fits in available memory
 Direct TDDFT/TDA calculation will be performed
 Exchange:     0.1900 Hartree-Fock + 0.3500 B88 + 0.4600 muB88 + LR-HF
 Correlation:  0.1900 VWN5 + 0.8100 LYP
 Using SG-1 standard quadrature grid
 Adding PCM contribution to the XC response (LR-PCM)
 CIS energy converged when residual is below 10e- 6
 ---------------------------------------------------
 Iter    Rts Conv    Rts Left    Ttl Dev     Max Dev
 ---------------------------------------------------
   1         0         100      0.004505    0.000172
   2         0         100      0.002755    0.000097
   3         0         100      0.002880    0.000091
   4         0         100      0.003812    0.000102
   5         6          94      0.002685    0.000075
   6        15          85      0.001473    0.000057
   7        19          81      0.000966    0.000046
   8        38          62      0.000531    0.000037
   9        62          38      0.000208    0.000023
  10        80          20      0.000076    0.000009
  11        95           5      0.000031    0.000003
  12       100           0      0.000022    0.000001    Roots Converged
 ---------------------------------------------------
 
 ---------------------------------------------------
         TDDFT/TDA Excitation Energies              
 ---------------------------------------------------

 Excited state   1: excitation energy (eV) =    2.1309
 Total energy for state  1:                 -3552.42212049 au
    <S**2>     :  8.8412
    Trans. Mom.: -0.7988 X   0.0706 Y   0.2116 Z
    Strength   :     0.0359066813
    D(  189) --> S(    1) amplitude =  0.8767 beta
    D(  189) --> S(    2) amplitude = -0.1786 beta
    D(  189) --> S(    3) amplitude =  0.3268 beta

 Excited state   2: excitation energy (eV) =    2.2076
 Total energy for state  2:                 -3552.41930362 au
    <S**2>     :  8.8070
    Trans. Mom.:  0.9656 X  -0.0743 Y  -0.2530 Z
    Strength   :     0.0541915167
    D(  188) --> S(    1) amplitude =  0.7161 beta
    D(  188) --> S(    2) amplitude = -0.3600 beta
    D(  188) --> S(    3) amplitude =  0.2900 beta
    D(  189) --> S(    1) amplitude = -0.1505 beta
    D(  189) --> S(    2) amplitude = -0.4079 beta

 Excited state   3: excitation energy (eV) =    2.2631
 Total energy for state  3:                 -3552.41726324 au
    <S**2>     :  8.7990
    Trans. Mom.:  0.0375 X   0.0903 Y  -0.0049 Z
    Strength   :     0.0005316285
    D(  188) --> S(    3) amplitude =  0.4234 beta
    D(  189) --> S(    1) amplitude = -0.1819 beta
    D(  189) --> S(    2) amplitude =  0.5603 beta
    D(  189) --> S(    3) amplitude =  0.6380 beta

 Excited state   4: excitation energy (eV) =    2.2828
 Total energy for state  4:                 -3552.41653882 au
    <S**2>     :  8.8360
    Trans. Mom.: -0.8900 X   0.0426 Y   0.2160 Z
    Strength   :     0.0470113900
    D(  188) --> S(    1) amplitude =  0.4319 beta
    D(  188) --> S(    2) amplitude =  0.8464 beta
    D(  189) --> S(    3) amplitude = -0.1592 beta

 Excited state   5: excitation energy (eV) =    2.2900
 Total energy for state  5:                 -3552.41627538 au
    <S**2>     :  8.7947
    Trans. Mom.:  0.9465 X  -0.1221 Y  -0.2662 Z
    Strength   :     0.0550779913
    D(  188) --> S(    3) amplitude = -0.5807 beta
    D(  189) --> S(    1) amplitude = -0.2644 beta
    D(  189) --> S(    2) amplitude = -0.3552 beta
    D(  189) --> S(    3) amplitude =  0.6260 beta

 Excited state   6: excitation energy (eV) =    2.6018
 Total energy for state  6:                 -3552.40481657 au
    <S**2>     :  8.8438
    Trans. Mom.: -0.2421 X  -0.3660 Y   0.0208 Z
    Strength   :     0.0123017924
    D(  188) --> S(    1) amplitude = -0.4434 beta
    D(  188) --> S(    2) amplitude =  0.2358 beta
    D(  188) --> S(    3) amplitude =  0.5564 beta
    D(  189) --> S(    1) amplitude = -0.1715 beta
    D(  189) --> S(    2) amplitude = -0.5245 beta

 Excited state   7: excitation energy (eV) =    3.0169
 Total energy for state  7:                 -3552.38955908 au
    <S**2>     : 10.5090
    Trans. Mom.:  0.2018 X   0.0382 Y  -0.0070 Z
    Strength   :     0.0031228308
    S(    4) --> V(    2) amplitude =  0.3576 alpha
    S(    4) --> V(    3) amplitude =  0.4338 alpha
    S(    4) --> V(    4) amplitude =  0.2288 alpha
    S(    4) --> V(    7) amplitude =  0.1675 alpha
    D(  188) --> S(    5) amplitude =  0.5066 beta
    D(  188) --> V(    2) amplitude = -0.1748 beta
    D(  188) --> V(    3) amplitude = -0.1560 beta
    D(  189) --> S(    5) amplitude = -0.1751 beta

 Excited state   8: excitation energy (eV) =    3.0299
 Total energy for state  8:                 -3552.38908484 au
    <S**2>     : 10.4683
    Trans. Mom.: -0.2210 X   0.0782 Y   0.1153 Z
    Strength   :     0.0050675942
    S(    5) --> V(    2) amplitude =  0.3592 alpha
    S(    5) --> V(    3) amplitude = -0.2728 alpha
    S(    5) --> V(    4) amplitude = -0.3098 alpha
    S(    5) --> V(    6) amplitude = -0.2461 alpha
    S(    5) --> V(    7) amplitude =  0.2389 alpha
    D(  188) --> V(    1) amplitude =  0.1522 beta
    D(  189) --> S(    5) amplitude = -0.1767 beta
    D(  189) --> V(    1) amplitude =  0.3676 beta
    D(  189) --> V(    2) amplitude =  0.2441 beta
    D(  189) --> V(    4) amplitude = -0.1712 beta
    D(  189) --> V(    6) amplitude =  0.2320 beta

 Excited state   9: excitation energy (eV) =    3.3145
 Total energy for state  9:                 -3552.37862417 au
    <S**2>     :  9.7392
    Trans. Mom.: -0.2875 X  -0.1616 Y  -0.0320 Z
    Strength   :     0.0089155244
    S(    3) --> V(    8) amplitude = -0.1616 alpha
    S(    3) --> V(   10) amplitude = -0.2113 alpha
    S(    3) --> V(   13) amplitude = -0.2371 alpha
    D(  187) --> S(    1) amplitude =  0.6105 beta
    D(  187) --> S(    3) amplitude =  0.4727 beta
    D(  187) --> V(   15) amplitude = -0.2034 beta

 Excited state  10: excitation energy (eV) =    3.3974
 Total energy for state 10:                 -3552.37557757 au
    <S**2>     :  8.9237
    Trans. Mom.: -0.0830 X  -0.0263 Y  -0.0819 Z
    Strength   :     0.0011895031
    D(  188) --> V(    1) amplitude =  0.2464 beta
    D(  188) --> V(    3) amplitude = -0.3856 beta
    D(  188) --> V(    4) amplitude = -0.3069 beta
    D(  188) --> V(    5) amplitude =  0.3431 beta
    D(  188) --> V(    8) amplitude =  0.4598 beta
    D(  189) --> S(    5) amplitude = -0.2319 beta
    D(  189) --> V(    8) amplitude = -0.1987 beta
    D(  189) --> V(    9) amplitude =  0.2182 beta

 Excited state  11: excitation energy (eV) =    3.4260
 Total energy for state 11:                 -3552.37452822 au
    <S**2>     :  8.9014
    Trans. Mom.:  0.1220 X   0.1091 Y  -0.0483 Z
    Strength   :     0.0024443110
    D(  188) --> V(    8) amplitude = -0.1734 beta
    D(  189) --> S(    5) amplitude = -0.2285 beta
    D(  189) --> V(    1) amplitude =  0.3226 beta
    D(  189) --> V(    3) amplitude = -0.3399 beta
    D(  189) --> V(    4) amplitude = -0.3521 beta
    D(  189) --> V(    5) amplitude =  0.3534 beta
    D(  189) --> V(    8) amplitude =  0.2501 beta
    D(  189) --> V(    9) amplitude =  0.2892 beta
    D(  189) --> V(   15) amplitude =  0.1902 beta

 Excited state  12: excitation energy (eV) =    3.4676
 Total energy for state 12:                 -3552.37299949 au
    <S**2>     :  9.0470
    Trans. Mom.:  0.1659 X  -0.0153 Y   0.0012 Z
    Strength   :     0.0023567357
    D(  188) --> V(    3) amplitude = -0.1968 beta
    D(  188) --> V(    5) amplitude =  0.1586 beta
    D(  188) --> V(    8) amplitude =  0.2697 beta
    D(  189) --> S(    5) amplitude =  0.3558 beta
    D(  189) --> V(    3) amplitude = -0.2994 beta
    D(  189) --> V(    4) amplitude = -0.1531 beta
    D(  189) --> V(    5) amplitude =  0.2120 beta
    D(  189) --> V(    8) amplitude =  0.4776 beta
    D(  189) --> V(    9) amplitude = -0.2266 beta

 Excited state  13: excitation energy (eV) =    3.5589
 Total energy for state 13:                 -3552.36964130 au
    <S**2>     :  8.8729
    Trans. Mom.:  0.1491 X  -0.1586 Y  -0.0251 Z
    Strength   :     0.0041871186
    D(  187) --> S(    1) amplitude = -0.6435 beta
    D(  187) --> S(    3) amplitude =  0.6536 beta

 Excited state  14: excitation energy (eV) =    3.5674
 Total energy for state 14:                 -3552.36933146 au
    <S**2>     :  8.8172
    Trans. Mom.: -0.1410 X  -0.2437 Y  -0.0298 Z
    Strength   :     0.0070054546
    D(  187) --> S(    1) amplitude =  0.1589 beta
    D(  187) --> S(    2) amplitude =  0.8400 beta
    D(  188) --> S(    5) amplitude =  0.1759 beta
    D(  188) --> V(    9) amplitude = -0.1539 beta

 Excited state  15: excitation energy (eV) =    3.6342
 Total energy for state 15:                 -3552.36687419 au
    <S**2>     :  8.9714
    Trans. Mom.:  0.5519 X  -0.1294 Y   0.0005 Z
    Strength   :     0.0286067637
    D(  187) --> S(    2) amplitude =  0.3661 beta
    D(  188) --> S(    5) amplitude = -0.3657 beta
    D(  188) --> V(    1) amplitude =  0.2640 beta
    D(  188) --> V(    4) amplitude = -0.2047 beta
    D(  188) --> V(    6) amplitude = -0.1582 beta
    D(  188) --> V(    9) amplitude =  0.3537 beta
    D(  188) --> V(   14) amplitude =  0.1965 beta
    D(  188) --> V(   15) amplitude =  0.1987 beta

 Excited state  16: excitation energy (eV) =    3.7040
 Total energy for state 16:                 -3552.36430922 au
    <S**2>     : 10.1630
    Trans. Mom.: -0.1955 X   0.0478 Y   0.0206 Z
    Strength   :     0.0037164907
    S(    5) --> V(   21) amplitude = -0.3294 alpha
    S(    5) --> V(   23) amplitude = -0.2732 alpha
    S(    5) --> V(   31) amplitude =  0.1694 alpha
    D(  187) --> S(    2) amplitude =  0.1515 beta
    D(  189) --> V(   21) amplitude =  0.2272 beta
    D(  189) --> V(   23) amplitude =  0.1853 beta
    D(  189) --> V(   24) amplitude =  0.1864 beta
    D(  189) --> V(   31) amplitude =  0.1575 beta

 Excited state  17: excitation energy (eV) =    3.7218
 Total energy for state 17:                 -3552.36365521 au
    <S**2>     : 10.4928
    Trans. Mom.: -0.2201 X   0.0213 Y   0.1057 Z
    Strength   :     0.0054761805
    S(    4) --> V(   22) amplitude = -0.4630 alpha
    S(    4) --> V(   25) amplitude =  0.1943 alpha
    S(    4) --> V(   29) amplitude =  0.1960 alpha
    D(  188) --> V(   22) amplitude =  0.3006 beta
    D(  188) --> V(   25) amplitude = -0.1988 beta
    D(  188) --> V(   29) amplitude =  0.2067 beta

 Excited state  18: excitation energy (eV) =    3.7868
 Total energy for state 18:                 -3552.36126665 au
    <S**2>     :  9.6057
    Trans. Mom.: -0.4970 X  -0.1884 Y  -0.0149 Z
    Strength   :     0.0262318077
    S(    3) --> V(    8) amplitude =  0.2186 alpha
    S(    3) --> V(   10) amplitude =  0.2844 alpha
    S(    3) --> V(   13) amplitude =  0.3143 alpha
    D(  186) --> S(    1) amplitude =  0.1713 beta
    D(  187) --> S(    1) amplitude =  0.2757 beta
    D(  187) --> S(    3) amplitude =  0.4846 beta
    D(  187) --> V(    9) amplitude = -0.1713 beta
    D(  187) --> V(   15) amplitude =  0.2483 beta

 Excited state  19: excitation energy (eV) =    3.8558
 Total energy for state 19:                 -3552.35873034 au
    <S**2>     :  9.2272
    Trans. Mom.: -0.4659 X   0.1402 Y   0.0874 Z
    Strength   :     0.0230793719
    D(  185) --> S(    1) amplitude = -0.3147 beta
    D(  185) --> S(    2) amplitude = -0.1697 beta
    D(  186) --> S(    1) amplitude =  0.6775 beta
    D(  186) --> S(    2) amplitude =  0.2736 beta

 Excited state  20: excitation energy (eV) =    3.9067
 Total energy for state 20:                 -3552.35686141 au
    <S**2>     :  9.1156
    Trans. Mom.: -0.2175 X   0.0241 Y   0.0060 Z
    Strength   :     0.0045882063
    D(  185) --> S(    1) amplitude = -0.3947 beta
    D(  185) --> S(    2) amplitude =  0.4253 beta
    D(  186) --> S(    1) amplitude = -0.2888 beta
    D(  186) --> S(    2) amplitude =  0.5003 beta

 Excited state  21: excitation energy (eV) =    4.0026
 Total energy for state 21:                 -3552.35333836 au
    <S**2>     :  8.8542
    Trans. Mom.: -0.2924 X   0.0944 Y   0.0541 Z
    Strength   :     0.0095414503
    D(  172) --> S(    3) amplitude = -0.1593 beta
    D(  173) --> S(    3) amplitude =  0.1617 beta
    D(  177) --> S(    2) amplitude = -0.1527 beta
    D(  177) --> S(    3) amplitude =  0.1702 beta
    D(  179) --> S(    1) amplitude =  0.2036 beta
    D(  179) --> S(    2) amplitude = -0.2304 beta
    D(  179) --> S(    3) amplitude =  0.2901 beta
    D(  185) --> S(    2) amplitude =  0.3724 beta
    D(  186) --> S(    1) amplitude =  0.2310 beta
    D(  186) --> S(    2) amplitude = -0.2802 beta
    D(  186) --> S(    3) amplitude =  0.4740 beta

 Excited state  22: excitation energy (eV) =    4.0402
 Total energy for state 22:                 -3552.35195626 au
    <S**2>     :  8.9985
    Trans. Mom.: -0.4420 X  -0.0406 Y   0.0877 Z
    Strength   :     0.0202595506
    D(  172) --> S(    1) amplitude = -0.2051 beta
    D(  172) --> S(    3) amplitude =  0.1677 beta
    D(  179) --> S(    1) amplitude = -0.3282 beta
    D(  179) --> S(    2) amplitude = -0.2961 beta
    D(  185) --> S(    1) amplitude =  0.4065 beta
    D(  185) --> S(    2) amplitude =  0.3411 beta
    D(  186) --> S(    1) amplitude =  0.2108 beta
    D(  186) --> S(    2) amplitude =  0.2424 beta
    D(  186) --> S(    3) amplitude = -0.2369 beta

 Excited state  23: excitation energy (eV) =    4.0700
 Total energy for state 23:                 -3552.35085943 au
    <S**2>     :  8.8820
    Trans. Mom.: -0.0662 X  -0.1849 Y   0.0966 Z
    Strength   :     0.0047771690
    D(  178) --> S(    1) amplitude = -0.1927 beta
    D(  179) --> S(    1) amplitude =  0.4403 beta
    D(  179) --> S(    2) amplitude = -0.1529 beta
    D(  182) --> S(    1) amplitude = -0.3107 beta
    D(  185) --> S(    1) amplitude =  0.4091 beta
    D(  185) --> S(    2) amplitude = -0.1672 beta
    D(  186) --> S(    2) amplitude =  0.3729 beta
    D(  186) --> S(    3) amplitude =  0.2039 beta

 Excited state  24: excitation energy (eV) =    4.0893
 Total energy for state 24:                 -3552.35015232 au
    <S**2>     :  8.8885
    Trans. Mom.: -0.4575 X  -0.0618 Y   0.1767 Z
    Strength   :     0.0244765231
    D(  178) --> S(    1) amplitude =  0.1697 beta
    D(  179) --> S(    1) amplitude = -0.3924 beta
    D(  179) --> S(    2) amplitude =  0.1971 beta
    D(  182) --> S(    1) amplitude =  0.2230 beta
    D(  185) --> S(    1) amplitude =  0.1810 beta
    D(  186) --> S(    3) amplitude =  0.5474 beta

 Excited state  25: excitation energy (eV) =    4.0934
 Total energy for state 25:                 -3552.35000036 au
    <S**2>     :  8.9151
    Trans. Mom.: -0.6314 X   0.0013 Y   0.0874 Z
    Strength   :     0.0407500286
    D(  178) --> S(    2) amplitude = -0.1625 beta
    D(  179) --> S(    1) amplitude =  0.1569 beta
    D(  179) --> S(    2) amplitude =  0.4410 beta
    D(  179) --> S(    3) amplitude = -0.2048 beta
    D(  182) --> S(    1) amplitude = -0.2306 beta
    D(  185) --> S(    1) amplitude =  0.1761 beta
    D(  185) --> S(    2) amplitude =  0.3293 beta
    D(  185) --> S(    3) amplitude =  0.3159 beta
    D(  186) --> S(    1) amplitude =  0.2161 beta
    D(  186) --> S(    2) amplitude = -0.2527 beta

 Excited state  26: excitation energy (eV) =    4.1286
 Total energy for state 26:                 -3552.34870722 au
    <S**2>     :  8.8708
    Trans. Mom.:  0.1749 X   0.2131 Y   0.0107 Z
    Strength   :     0.0076965065
    D(  171) --> S(    3) amplitude =  0.1600 beta
    D(  172) --> S(    3) amplitude = -0.1903 beta
    D(  174) --> S(    3) amplitude =  0.1675 beta
    D(  177) --> S(    2) amplitude = -0.2066 beta
    D(  177) --> S(    3) amplitude = -0.1686 beta
    D(  179) --> S(    1) amplitude = -0.1575 beta
    D(  179) --> S(    2) amplitude = -0.3735 beta
    D(  179) --> S(    3) amplitude = -0.2202 beta
    D(  182) --> S(    3) amplitude = -0.1800 beta
    D(  185) --> S(    2) amplitude = -0.1646 beta
    D(  185) --> S(    3) amplitude =  0.5342 beta

 Excited state  27: excitation energy (eV) =    4.1539
 Total energy for state 27:                 -3552.34777807 au
    <S**2>     :  8.8523
    Trans. Mom.: -0.0115 X   0.1340 Y   0.1689 Z
    Strength   :     0.0047461114
    D(  174) --> S(    1) amplitude = -0.1569 beta
    D(  177) --> S(    1) amplitude =  0.3189 beta
    D(  178) --> S(    3) amplitude =  0.2270 beta
    D(  179) --> S(    1) amplitude =  0.1539 beta
    D(  179) --> S(    3) amplitude = -0.5401 beta
    D(  182) --> S(    1) amplitude =  0.3686 beta
    D(  182) --> S(    3) amplitude =  0.1753 beta
    D(  185) --> S(    2) amplitude =  0.1521 beta
    D(  185) --> S(    3) amplitude = -0.1601 beta

 Excited state  28: excitation energy (eV) =    4.1654
 Total energy for state 28:                 -3552.34735410 au
    <S**2>     :  8.8636
    Trans. Mom.: -0.0805 X  -0.0404 Y  -0.0697 Z
    Strength   :     0.0013242962
    D(  171) --> S(    3) amplitude =  0.1853 beta
    D(  173) --> S(    1) amplitude =  0.1735 beta
    D(  177) --> S(    1) amplitude =  0.3429 beta
    D(  179) --> S(    1) amplitude =  0.2016 beta
    D(  179) --> S(    3) amplitude =  0.3146 beta
    D(  182) --> S(    1) amplitude =  0.3503 beta
    D(  185) --> S(    3) amplitude =  0.5242 beta
    D(  186) --> S(    3) amplitude = -0.2020 beta

 Excited state  29: excitation energy (eV) =    4.2249
 Total energy for state 29:                 -3552.34516816 au
    <S**2>     :  8.8637
    Trans. Mom.:  0.2202 X   0.0366 Y   0.3239 Z
    Strength   :     0.0160205392
    D(  173) --> S(    2) amplitude = -0.2681 beta
    D(  174) --> S(    1) amplitude =  0.1674 beta
    D(  177) --> S(    2) amplitude = -0.3899 beta
    D(  182) --> S(    2) amplitude = -0.5494 beta

 Excited state  30: excitation energy (eV) =    4.2418
 Total energy for state 30:                 -3552.34454558 au
    <S**2>     :  9.1358
    Trans. Mom.: -0.5414 X   0.0083 Y   0.2411 Z
    Strength   :     0.0365101507
    D(  171) --> S(    1) amplitude = -0.1987 beta
    D(  172) --> S(    1) amplitude = -0.1708 beta
    D(  173) --> S(    3) amplitude = -0.1789 beta
    D(  174) --> S(    3) amplitude =  0.1752 beta
    D(  177) --> S(    3) amplitude = -0.3745 beta
    D(  182) --> S(    3) amplitude = -0.5097 beta
    D(  185) --> S(    3) amplitude = -0.1667 beta

 Excited state  31: excitation energy (eV) =    4.2429
 Total energy for state 31:                 -3552.34450641 au
    <S**2>     :  8.9703
    Trans. Mom.:  1.9321 X   0.3036 Y  -0.4712 Z
    Strength   :     0.4207006127
    S(    4) --> V(    3) amplitude =  0.1611 alpha
    S(    5) --> V(    2) amplitude = -0.2365 alpha
    S(    5) --> V(    4) amplitude =  0.1789 alpha
    D(  171) --> S(    2) amplitude = -0.1784 beta
    D(  177) --> S(    3) amplitude = -0.1750 beta
    D(  182) --> S(    3) amplitude = -0.2428 beta
    D(  186) --> S(    2) amplitude =  0.1561 beta
    D(  186) --> S(    3) amplitude =  0.2077 beta
    D(  188) --> S(    5) amplitude = -0.1729 beta
    D(  188) --> V(    9) amplitude = -0.1953 beta
    D(  189) --> V(    1) amplitude =  0.2626 beta
    D(  189) --> V(    6) amplitude =  0.2121 beta

 Excited state  32: excitation energy (eV) =    4.2946
 Total energy for state 32:                 -3552.34260638 au
    <S**2>     :  9.0470
    Trans. Mom.:  0.1270 X   0.1179 Y  -0.2942 Z
    Strength   :     0.0122642453
    D(  172) --> S(    1) amplitude =  0.2512 beta
    D(  172) --> S(    2) amplitude = -0.3083 beta
    D(  173) --> S(    1) amplitude = -0.1742 beta
    D(  174) --> S(    1) amplitude = -0.2652 beta
    D(  174) --> S(    2) amplitude =  0.1924 beta
    D(  177) --> S(    2) amplitude = -0.1509 beta
    D(  179) --> S(    2) amplitude =  0.2144 beta
    D(  182) --> S(    2) amplitude = -0.3885 beta
    D(  185) --> S(    1) amplitude =  0.1718 beta

 Excited state  33: excitation energy (eV) =    4.3201
 Total energy for state 33:                 -3552.34167009 au
    <S**2>     :  9.3534
    Trans. Mom.:  0.0768 X  -0.0105 Y   0.5249 Z
    Strength   :     0.0298016033
    S(    1) --> V(    3) amplitude =  0.1747 alpha
    S(    2) --> V(    2) amplitude = -0.2123 alpha
    S(    5) --> V(    2) amplitude =  0.1640 alpha
    D(  172) --> S(    1) amplitude =  0.3186 beta
    D(  173) --> S(    1) amplitude = -0.1668 beta
    D(  174) --> S(    1) amplitude = -0.1759 beta
    D(  179) --> S(    3) amplitude =  0.1808 beta
    D(  182) --> S(    3) amplitude = -0.2221 beta
    D(  185) --> S(    5) amplitude =  0.1624 beta
    D(  186) --> S(    2) amplitude = -0.1554 beta

 Excited state  34: excitation energy (eV) =    4.3321
 Total energy for state 34:                 -3552.34122713 au
    <S**2>     :  8.9388
    Trans. Mom.:  0.4971 X   0.0986 Y   0.3528 Z
    Strength   :     0.0404640848
    S(    4) --> V(    2) amplitude =  0.1749 alpha
    S(    4) --> V(    3) amplitude =  0.1648 alpha
    D(  171) --> S(    1) amplitude = -0.3034 beta
    D(  172) --> S(    2) amplitude = -0.1581 beta
    D(  173) --> S(    1) amplitude = -0.2733 beta
    D(  173) --> S(    3) amplitude =  0.2079 beta
    D(  174) --> S(    1) amplitude = -0.2596 beta
    D(  176) --> S(    1) amplitude =  0.2299 beta
    D(  177) --> S(    3) amplitude =  0.1683 beta
    D(  182) --> S(    1) amplitude = -0.1595 beta
    D(  182) --> S(    3) amplitude =  0.1753 beta
    D(  188) --> S(    5) amplitude = -0.1816 beta

 Excited state  35: excitation energy (eV) =    4.3658
 Total energy for state 35:                 -3552.33998937 au
    <S**2>     :  9.4421
    Trans. Mom.:  0.5961 X   0.0968 Y   0.4430 Z
    Strength   :     0.0599948597
    S(    1) --> V(    2) amplitude = -0.2675 alpha
    S(    1) --> V(    3) amplitude = -0.2612 alpha
    S(    2) --> V(    3) amplitude =  0.1657 alpha
    S(    4) --> V(    2) amplitude =  0.2046 alpha
    S(    4) --> V(    3) amplitude =  0.1887 alpha
    D(  172) --> S(    3) amplitude = -0.1528 beta
    D(  173) --> S(    1) amplitude =  0.1555 beta
    D(  174) --> S(    1) amplitude =  0.1644 beta
    D(  185) --> S(    2) amplitude =  0.3154 beta
    D(  185) --> S(    5) amplitude = -0.2078 beta
    D(  188) --> S(    5) amplitude = -0.2097 beta

 Excited state  36: excitation energy (eV) =    4.4076
 Total energy for state 36:                 -3552.33845229 au
    <S**2>     :  9.1552
    Trans. Mom.:  0.1206 X  -0.1471 Y  -0.2535 Z
    Strength   :     0.0108463505
    S(    2) --> V(    2) amplitude = -0.1786 alpha
    D(  171) --> S(    2) amplitude = -0.2230 beta
    D(  172) --> S(    1) amplitude = -0.4908 beta
    D(  174) --> S(    1) amplitude = -0.2475 beta
    D(  176) --> S(    1) amplitude =  0.2451 beta
    D(  179) --> S(    1) amplitude =  0.1903 beta
    D(  186) --> S(    1) amplitude = -0.2768 beta

 Excited state  37: excitation energy (eV) =    4.4499
 Total energy for state 37:                 -3552.33690067 au
    <S**2>     :  8.8284
    Trans. Mom.: -0.4200 X  -0.0413 Y  -0.0038 Z
    Strength   :     0.0194223739
    D(  172) --> S(    2) amplitude =  0.2977 beta
    D(  173) --> S(    1) amplitude = -0.1827 beta
    D(  173) --> S(    2) amplitude = -0.3836 beta
    D(  174) --> S(    1) amplitude = -0.3276 beta
    D(  174) --> S(    2) amplitude = -0.5022 beta
    D(  175) --> S(    2) amplitude =  0.1633 beta
    D(  178) --> S(    2) amplitude = -0.1815 beta

 Excited state  38: excitation energy (eV) =    4.4843
 Total energy for state 38:                 -3552.33563480 au
    <S**2>     :  8.8572
    Trans. Mom.: -0.0852 X  -0.1542 Y  -0.2896 Z
    Strength   :     0.0126200456
    D(  171) --> S(    3) amplitude = -0.1657 beta
    D(  172) --> S(    3) amplitude = -0.5177 beta
    D(  173) --> S(    3) amplitude =  0.3174 beta
    D(  174) --> S(    1) amplitude =  0.1521 beta
    D(  174) --> S(    3) amplitude =  0.3155 beta
    D(  179) --> S(    3) amplitude =  0.1725 beta
    D(  186) --> S(    3) amplitude = -0.2332 beta

 Excited state  39: excitation energy (eV) =    4.5154
 Total energy for state 39:                 -3552.33449212 au
    <S**2>     :  8.8294
    Trans. Mom.: -0.3348 X  -0.0764 Y   0.0733 Z
    Strength   :     0.0136420115
    D(  170) --> S(    1) amplitude =  0.1655 beta
    D(  171) --> S(    1) amplitude =  0.3646 beta
    D(  171) --> S(    3) amplitude =  0.2778 beta
    D(  172) --> S(    2) amplitude =  0.2574 beta
    D(  172) --> S(    3) amplitude = -0.1934 beta
    D(  173) --> S(    2) amplitude =  0.2016 beta
    D(  174) --> S(    2) amplitude =  0.3812 beta
    D(  176) --> S(    2) amplitude = -0.2139 beta
    D(  185) --> S(    3) amplitude = -0.1521 beta

 Excited state  40: excitation energy (eV) =    4.5408
 Total energy for state 40:                 -3552.33355711 au
    <S**2>     :  9.5726
    Trans. Mom.:  0.1025 X  -0.0877 Y   0.0790 Z
    Strength   :     0.0027196111
    S(    4) --> V(    1) amplitude = -0.2126 alpha
    S(    5) --> V(    1) amplitude =  0.3906 alpha
    S(    5) --> V(    2) amplitude =  0.1812 alpha
    S(    5) --> V(    4) amplitude = -0.3110 alpha
    S(    5) --> V(    7) amplitude = -0.2251 alpha
    S(    5) --> V(   10) amplitude = -0.1542 alpha
    D(  171) --> S(    3) amplitude =  0.1588 beta
    D(  172) --> S(    2) amplitude = -0.1892 beta
    D(  172) --> S(    3) amplitude =  0.1985 beta
    D(  174) --> S(    3) amplitude =  0.2509 beta
    D(  176) --> S(    3) amplitude = -0.1981 beta

 Excited state  41: excitation energy (eV) =    4.5445
 Total energy for state 41:                 -3552.33342389 au
    <S**2>     :  9.4506
    Trans. Mom.: -0.1308 X  -0.1308 Y   0.0714 Z
    Strength   :     0.0043782538
    S(    4) --> V(    1) amplitude =  0.2372 alpha
    S(    5) --> V(    1) amplitude = -0.2276 alpha
    D(  171) --> S(    1) amplitude =  0.2154 beta
    D(  171) --> S(    3) amplitude =  0.2613 beta
    D(  172) --> S(    2) amplitude = -0.2369 beta
    D(  172) --> S(    3) amplitude =  0.1883 beta
    D(  173) --> S(    3) amplitude =  0.1872 beta
    D(  174) --> S(    3) amplitude =  0.3154 beta
    D(  176) --> S(    3) amplitude = -0.2545 beta

 Excited state  42: excitation energy (eV) =    4.5471
 Total energy for state 42:                 -3552.33332687 au
    <S**2>     :  9.9351
    Trans. Mom.: -0.1144 X  -0.0472 Y  -0.1500 Z
    Strength   :     0.0042151315
    S(    4) --> V(    1) amplitude =  0.4809 alpha
    S(    4) --> V(    2) amplitude =  0.2233 alpha
    S(    4) --> V(    3) amplitude = -0.2018 alpha
    S(    4) --> V(    5) amplitude =  0.1791 alpha
    S(    4) --> V(    7) amplitude = -0.2139 alpha
    S(    4) --> V(    8) amplitude =  0.1567 alpha
    S(    4) --> V(   10) amplitude =  0.1878 alpha
    S(    5) --> V(    1) amplitude =  0.2826 alpha
    S(    5) --> V(    4) amplitude = -0.2447 alpha
    S(    5) --> V(    7) amplitude = -0.1648 alpha
    S(    5) --> V(   10) amplitude = -0.1529 alpha

 Excited state  43: excitation energy (eV) =    4.5800
 Total energy for state 43:                 -3552.33211718 au
    <S**2>     :  8.8888
    Trans. Mom.: -0.0508 X   0.1746 Y   0.1319 Z
    Strength   :     0.0056611729
    D(  171) --> S(    1) amplitude =  0.2120 beta
    D(  171) --> S(    2) amplitude = -0.3273 beta
    D(  172) --> S(    2) amplitude = -0.3817 beta
    D(  172) --> S(    3) amplitude = -0.2114 beta
    D(  173) --> S(    3) amplitude = -0.1686 beta
    D(  174) --> S(    2) amplitude = -0.2020 beta
    D(  174) --> S(    3) amplitude = -0.3558 beta
    D(  176) --> S(    2) amplitude =  0.2823 beta
    D(  176) --> S(    3) amplitude =  0.2002 beta

 Excited state  44: excitation energy (eV) =    4.5897
 Total energy for state 44:                 -3552.33176188 au
    <S**2>     :  9.2335
    Trans. Mom.: -0.2508 X   0.0204 Y   0.0109 Z
    Strength   :     0.0071343999
    D(  188) --> V(    2) amplitude = -0.1896 beta
    D(  188) --> V(   10) amplitude = -0.1947 beta
    D(  189) --> S(    4) amplitude =  0.5366 beta
    D(  189) --> V(    1) amplitude =  0.2962 beta
    D(  189) --> V(    3) amplitude =  0.1622 beta
    D(  189) --> V(    4) amplitude =  0.1725 beta
    D(  189) --> V(    8) amplitude =  0.1818 beta
    D(  189) --> V(   10) amplitude = -0.1537 beta

 Excited state  45: excitation energy (eV) =    4.6157
 Total energy for state 45:                 -3552.33080733 au
    <S**2>     :  9.3907
    Trans. Mom.:  0.1948 X   0.1217 Y   0.1746 Z
    Strength   :     0.0094122583
    D(  188) --> S(    4) amplitude =  0.5430 beta
    D(  188) --> S(    5) amplitude =  0.1532 beta
    D(  188) --> V(    2) amplitude =  0.2241 beta
    D(  188) --> V(    3) amplitude =  0.2202 beta
    D(  188) --> V(    7) amplitude = -0.2085 beta
    D(  189) --> V(    1) amplitude =  0.2288 beta
    D(  189) --> V(    2) amplitude = -0.1762 beta
    D(  189) --> V(   10) amplitude = -0.2338 beta

 Excited state  46: excitation energy (eV) =    4.6374
 Total energy for state 46:                 -3552.33000923 au
    <S**2>     :  8.9893
    Trans. Mom.:  0.2716 X   0.2683 Y   0.0498 Z
    Strength   :     0.0168429663
    D(  170) --> S(    2) amplitude =  0.2253 beta
    D(  171) --> S(    2) amplitude =  0.4968 beta
    D(  171) --> S(    3) amplitude =  0.1955 beta
    D(  172) --> S(    1) amplitude = -0.2371 beta
    D(  172) --> S(    2) amplitude = -0.2373 beta
    D(  172) --> S(    3) amplitude = -0.1664 beta
    D(  174) --> S(    3) amplitude = -0.1597 beta

 Excited state  47: excitation energy (eV) =    4.6728
 Total energy for state 47:                 -3552.32870870 au
    <S**2>     :  9.2604
    Trans. Mom.:  0.0625 X  -0.0344 Y   0.2323 Z
    Strength   :     0.0067591510
    S(    1) --> V(   22) amplitude =  0.2016 alpha
    D(  170) --> S(    3) amplitude = -0.1598 beta
    D(  171) --> S(    1) amplitude =  0.3962 beta
    D(  171) --> S(    3) amplitude = -0.3709 beta
    D(  174) --> S(    1) amplitude = -0.2106 beta
    D(  174) --> S(    3) amplitude =  0.1812 beta

 Excited state  48: excitation energy (eV) =    4.6860
 Total energy for state 48:                 -3552.32822166 au
    <S**2>     :  8.8971
    Trans. Mom.:  0.2604 X   0.1662 Y   0.0502 Z
    Strength   :     0.0112433939
    D(  187) --> V(    1) amplitude = -0.3590 beta
    D(  187) --> V(    3) amplitude =  0.3941 beta
    D(  187) --> V(    4) amplitude =  0.3696 beta
    D(  187) --> V(    5) amplitude = -0.3608 beta
    D(  187) --> V(    8) amplitude = -0.3359 beta

 Excited state  49: excitation energy (eV) =    4.7166
 Total energy for state 49:                 -3552.32709648 au
    <S**2>     : 10.1740
    Trans. Mom.:  0.0760 X  -0.0115 Y  -0.0313 Z
    Strength   :     0.0007964456
    S(    2) --> V(   21) amplitude = -0.2769 alpha
    S(    2) --> V(   23) amplitude = -0.2341 alpha
    D(  171) --> S(    2) amplitude =  0.2388 beta
    D(  185) --> S(    2) amplitude = -0.1657 beta
    D(  186) --> V(   21) amplitude =  0.1718 beta
    D(  186) --> V(   23) amplitude =  0.1710 beta
    D(  186) --> V(   24) amplitude =  0.1576 beta

 Excited state  50: excitation energy (eV) =    4.7357
 Total energy for state 50:                 -3552.32639771 au
    <S**2>     :  9.1991
    Trans. Mom.:  0.1968 X   0.2650 Y  -0.0640 Z
    Strength   :     0.0131153169
    S(    1) --> V(   22) amplitude =  0.1849 alpha
    S(    4) --> V(   22) amplitude = -0.1836 alpha
    D(  185) --> S(    5) amplitude = -0.2057 beta
    D(  186) --> S(    5) amplitude = -0.1616 beta
    D(  188) --> V(   22) amplitude = -0.2244 beta
    D(  188) --> V(   25) amplitude =  0.1708 beta

 Excited state  51: excitation energy (eV) =    4.7580
 Total energy for state 51:                 -3552.32557580 au
    <S**2>     :  9.1810
    Trans. Mom.: -0.2479 X   0.0730 Y  -0.6050 Z
    Strength   :     0.0504528447
    S(    1) --> V(    3) amplitude = -0.1582 alpha
    S(    1) --> V(   22) amplitude =  0.1854 alpha
    S(    4) --> V(   22) amplitude =  0.2595 alpha
    D(  171) --> S(    2) amplitude = -0.1572 beta
    D(  185) --> S(    5) amplitude =  0.1618 beta
    D(  188) --> V(   22) amplitude =  0.1731 beta

 Excited state  52: excitation energy (eV) =    4.7867
 Total energy for state 52:                 -3552.32452120 au
    <S**2>     :  9.1676
    Trans. Mom.: -0.2320 X  -0.3963 Y   0.3030 Z
    Strength   :     0.0354997769
    S(    1) --> V(   22) amplitude =  0.1776 alpha
    D(  170) --> S(    3) amplitude =  0.1755 beta
    D(  171) --> S(    1) amplitude = -0.2401 beta
    D(  171) --> S(    3) amplitude =  0.3987 beta
    D(  185) --> S(    1) amplitude =  0.1891 beta

 Excited state  53: excitation energy (eV) =    4.8447
 Total energy for state 53:                 -3552.32239198 au
    <S**2>     :  9.7964
    Trans. Mom.: -0.0225 X  -0.0191 Y  -0.0746 Z
    Strength   :     0.0007647314
    D(  187) --> V(   10) amplitude =  0.1861 alpha
    D(  187) --> V(   13) amplitude =  0.1999 alpha
    S(    4) --> V(    7) amplitude =  0.2302 alpha
    S(    4) --> V(    8) amplitude =  0.3369 alpha
    S(    4) --> V(    9) amplitude = -0.2041 alpha
    S(    4) --> V(   10) amplitude =  0.2843 alpha
    S(    4) --> V(   12) amplitude = -0.1543 alpha
    S(    4) --> V(   13) amplitude =  0.3954 alpha

 Excited state  54: excitation energy (eV) =    4.8493
 Total energy for state 54:                 -3552.32222181 au
    <S**2>     : 10.6899
    Trans. Mom.: -0.0071 X  -0.0193 Y  -0.0122 Z
    Strength   :     0.0000677566
    D(  183) --> V(    2) amplitude = -0.2845 alpha
    D(  183) --> V(    3) amplitude = -0.3477 alpha
    D(  183) --> V(    4) amplitude = -0.1839 alpha
    D(  189) --> V(    3) amplitude =  0.1694 alpha
    D(  180) --> S(    2) amplitude = -0.1739 beta
    D(  180) --> S(    5) amplitude = -0.3684 beta
    D(  180) --> V(    8) amplitude =  0.1858 beta
    D(  180) --> V(    9) amplitude = -0.1646 beta
    D(  184) --> S(    5) amplitude =  0.1820 beta

 Excited state  55: excitation energy (eV) =    4.8627
 Total energy for state 55:                 -3552.32172777 au
    <S**2>     : 10.6791
    Trans. Mom.: -0.0582 X  -0.0118 Y  -0.0400 Z
    Strength   :     0.0006113314
    D(  184) --> V(    2) amplitude =  0.2982 alpha
    D(  184) --> V(    3) amplitude = -0.2280 alpha
    D(  184) --> V(    4) amplitude = -0.2514 alpha
    D(  184) --> V(    6) amplitude = -0.2261 alpha
    D(  184) --> V(    7) amplitude =  0.2060 alpha
    D(  181) --> S(    1) amplitude =  0.2262 beta
    D(  181) --> V(    1) amplitude = -0.3045 beta
    D(  181) --> V(    2) amplitude = -0.2003 beta
    D(  181) --> V(    6) amplitude = -0.2731 beta
    D(  181) --> V(    8) amplitude =  0.1636 beta
    D(  181) --> V(    9) amplitude =  0.1641 beta

 Excited state  56: excitation energy (eV) =    4.8899
 Total energy for state 56:                 -3552.32073000 au
    <S**2>     :  8.9996
    Trans. Mom.: -0.6823 X  -0.1675 Y  -0.4580 Z
    Strength   :     0.0842598411
    S(    3) --> V(   10) amplitude =  0.1519 alpha
    D(  187) --> S(    5) amplitude = -0.4493 beta
    D(  187) --> V(    3) amplitude =  0.1534 beta
    D(  187) --> V(    6) amplitude = -0.1862 beta
    D(  187) --> V(    8) amplitude = -0.3788 beta
    D(  187) --> V(    9) amplitude =  0.3041 beta

 Excited state  57: excitation energy (eV) =    4.9403
 Total energy for state 57:                 -3552.31887621 au
    <S**2>     :  9.3507
    Trans. Mom.: -0.4920 X  -0.2024 Y  -0.0769 Z
    Strength   :     0.0349756328
    D(  178) --> S(    1) amplitude =  0.3434 beta
    D(  178) --> S(    3) amplitude =  0.2537 beta
    D(  188) --> V(    1) amplitude = -0.1724 beta
    D(  188) --> V(    6) amplitude =  0.2271 beta
    D(  188) --> V(   14) amplitude =  0.1822 beta
    D(  188) --> V(   15) amplitude =  0.2591 beta
    D(  189) --> V(   15) amplitude = -0.1868 beta

 Excited state  58: excitation energy (eV) =    4.9521
 Total energy for state 58:                 -3552.31844522 au
    <S**2>     :  9.8765
    Trans. Mom.: -0.0799 X  -0.0359 Y  -0.0385 Z
    Strength   :     0.0011110377
    S(    5) --> V(    2) amplitude =  0.2146 alpha
    S(    5) --> V(    5) amplitude =  0.6950 alpha
    S(    5) --> V(    9) amplitude = -0.3289 alpha
    S(    5) --> V(   10) amplitude =  0.1945 alpha
    S(    5) --> V(   13) amplitude =  0.2402 alpha
    S(    5) --> V(   15) amplitude =  0.1683 alpha
    S(    5) --> V(   20) amplitude = -0.1743 alpha

 Excited state  59: excitation energy (eV) =    4.9734
 Total energy for state 59:                 -3552.31765975 au
    <S**2>     : 10.0709
    Trans. Mom.: -0.1592 X  -0.0585 Y  -0.0065 Z
    Strength   :     0.0035099764
    S(    5) --> V(    2) amplitude =  0.1746 alpha
    S(    5) --> V(    3) amplitude = -0.2162 alpha
    S(    5) --> V(    4) amplitude =  0.1527 alpha
    S(    5) --> V(    5) amplitude = -0.2767 alpha
    S(    5) --> V(    8) amplitude =  0.4144 alpha
    S(    5) --> V(   10) amplitude =  0.3871 alpha
    S(    5) --> V(   12) amplitude = -0.2118 alpha
    S(    5) --> V(   13) amplitude =  0.3319 alpha
    S(    5) --> V(   23) amplitude =  0.1635 alpha

 Excited state  60: excitation energy (eV) =    4.9862
 Total energy for state 60:                 -3552.31719023 au
    <S**2>     : 10.3027
    Trans. Mom.:  0.0098 X   0.0249 Y  -0.0264 Z
    Strength   :     0.0001727284
    S(    4) --> V(    2) amplitude =  0.2261 alpha
    S(    4) --> V(    4) amplitude = -0.2418 alpha
    S(    4) --> V(    5) amplitude = -0.2302 alpha
    S(    4) --> V(    6) amplitude =  0.2102 alpha
    S(    4) --> V(    7) amplitude = -0.1982 alpha
    S(    4) --> V(   10) amplitude =  0.1606 alpha
    D(  188) --> V(    1) amplitude =  0.2945 beta
    D(  188) --> V(    4) amplitude =  0.1597 beta
    D(  188) --> V(    6) amplitude = -0.2485 beta
    D(  188) --> V(   15) amplitude = -0.1983 beta

 Excited state  61: excitation energy (eV) =    4.9964
 Total energy for state 61:                 -3552.31681514 au
    <S**2>     :  9.4975
    Trans. Mom.: -0.1089 X  -0.0143 Y   0.0612 Z
    Strength   :     0.0019361293
    D(  188) --> V(    3) amplitude =  0.1970 beta
    D(  189) --> V(    2) amplitude = -0.1715 beta
    D(  189) --> V(    3) amplitude =  0.6090 beta
    D(  189) --> V(    4) amplitude = -0.2656 beta
    D(  189) --> V(    5) amplitude =  0.1750 beta
    D(  189) --> V(    7) amplitude =  0.2335 beta
    D(  189) --> V(    8) amplitude =  0.1794 beta
    D(  189) --> V(   15) amplitude =  0.1825 beta
    D(  189) --> V(   19) amplitude = -0.1724 beta

 Excited state  62: excitation energy (eV) =    5.0091
 Total energy for state 62:                 -3552.31634731 au
    <S**2>     :  9.2151
    Trans. Mom.: -0.1735 X  -0.0885 Y  -0.0369 Z
    Strength   :     0.0048206017
    S(    4) --> V(    2) amplitude = -0.2051 alpha
    S(    4) --> V(    4) amplitude =  0.2139 alpha
    S(    4) --> V(    5) amplitude =  0.2249 alpha
    S(    4) --> V(    6) amplitude = -0.1969 alpha
    S(    4) --> V(    7) amplitude =  0.1680 alpha
    S(    4) --> V(   10) amplitude = -0.1846 alpha
    D(  178) --> S(    1) amplitude =  0.2720 beta
    D(  178) --> S(    3) amplitude =  0.1569 beta
    D(  188) --> V(    1) amplitude =  0.2625 beta
    D(  188) --> V(    6) amplitude = -0.2392 beta
    D(  188) --> V(   15) amplitude = -0.1929 beta

 Excited state  63: excitation energy (eV) =    5.0358
 Total energy for state 63:                 -3552.31536668 au
    <S**2>     :  9.2117
    Trans. Mom.: -0.3654 X  -0.0446 Y  -0.0558 Z
    Strength   :     0.0170987277
    D(  187) --> V(   15) amplitude = -0.1722 beta
    D(  189) --> S(    5) amplitude =  0.1681 beta
    D(  189) --> V(    2) amplitude =  0.1761 beta
    D(  189) --> V(    4) amplitude =  0.2398 beta
    D(  189) --> V(    9) amplitude = -0.1612 beta
    D(  189) --> V(   10) amplitude =  0.1963 beta
    D(  189) --> V(   14) amplitude =  0.3207 beta
    D(  189) --> V(   15) amplitude =  0.3701 beta
    D(  189) --> V(   18) amplitude = -0.1640 beta

 Excited state  64: excitation energy (eV) =    5.0629
 Total energy for state 64:                 -3552.31437038 au
    <S**2>     : 10.6818
    Trans. Mom.: -0.0933 X   0.0007 Y   0.0108 Z
    Strength   :     0.0010935143
    D(  179) --> V(    2) amplitude = -0.1997 alpha
    D(  179) --> V(    4) amplitude =  0.1524 alpha
    D(  180) --> V(    2) amplitude =  0.2103 alpha
    D(  180) --> V(    3) amplitude = -0.1799 alpha
    D(  180) --> V(    4) amplitude = -0.1931 alpha
    D(  180) --> V(    6) amplitude = -0.1629 alpha
    D(  174) --> V(    1) amplitude = -0.1623 beta
    D(  176) --> S(    1) amplitude =  0.1843 beta
    D(  176) --> V(    1) amplitude = -0.2606 beta
    D(  176) --> V(    2) amplitude = -0.1672 beta
    D(  176) --> V(    6) amplitude = -0.2312 beta

 Excited state  65: excitation energy (eV) =    5.0657
 Total energy for state 65:                 -3552.31426821 au
    <S**2>     : 10.7022
    Trans. Mom.: -0.0321 X  -0.0187 Y   0.0010 Z
    Strength   :     0.0001718838
    D(  179) --> V(    2) amplitude = -0.2011 alpha
    D(  179) --> V(    3) amplitude = -0.2705 alpha
    D(  180) --> V(    2) amplitude = -0.1997 alpha
    D(  180) --> V(    3) amplitude = -0.2164 alpha
    D(  175) --> S(    2) amplitude = -0.1806 beta
    D(  175) --> S(    5) amplitude = -0.3937 beta
    D(  175) --> V(    8) amplitude =  0.1980 beta
    D(  175) --> V(    9) amplitude = -0.1735 beta

 Excited state  66: excitation energy (eV) =    5.0809
 Total energy for state 66:                 -3552.31371170 au
    <S**2>     :  9.8845
    Trans. Mom.: -0.1967 X  -0.0061 Y  -0.0118 Z
    Strength   :     0.0048394067
    D(  188) --> S(    4) amplitude = -0.2069 beta
    D(  188) --> V(    1) amplitude =  0.2414 beta
    D(  188) --> V(    4) amplitude =  0.3892 beta
    D(  188) --> V(    9) amplitude = -0.2856 beta
    D(  188) --> V(   10) amplitude =  0.1830 beta
    D(  188) --> V(   14) amplitude =  0.2786 beta
    D(  188) --> V(   15) amplitude =  0.3579 beta
    D(  188) --> V(   20) amplitude =  0.1686 beta

 Excited state  67: excitation energy (eV) =    5.0869
 Total energy for state 67:                 -3552.31349152 au
    <S**2>     :  9.7186
    Trans. Mom.:  0.4363 X  -0.0316 Y  -0.0424 Z
    Strength   :     0.0240710902
    D(  187) --> V(    8) amplitude = -0.1605 alpha
    D(  187) --> V(   10) amplitude = -0.2112 alpha
    D(  187) --> V(   13) amplitude = -0.2247 alpha
    S(    4) --> V(    2) amplitude =  0.1651 alpha
    S(    4) --> V(    8) amplitude =  0.1572 alpha
    S(    4) --> V(   10) amplitude =  0.2799 alpha
    S(    4) --> V(   12) amplitude = -0.1885 alpha
    S(    4) --> V(   13) amplitude =  0.1765 alpha

 Excited state  68: excitation energy (eV) =    5.1028
 Total energy for state 68:                 -3552.31290542 au
    <S**2>     :  8.9712
    Trans. Mom.: -0.8967 X   0.0442 Y  -0.0398 Z
    Strength   :     0.1009656752
    D(  170) --> S(    2) amplitude =  0.2690 beta
    D(  177) --> S(    2) amplitude = -0.1608 beta
    D(  178) --> S(    2) amplitude =  0.4272 beta
    D(  179) --> S(    2) amplitude =  0.2116 beta
    D(  187) --> V(   14) amplitude = -0.2014 beta
    D(  187) --> V(   15) amplitude = -0.2885 beta

 Excited state  69: excitation energy (eV) =    5.1149
 Total energy for state 69:                 -3552.31246040 au
    <S**2>     : 10.1073
    Trans. Mom.:  0.1325 X   0.0093 Y  -0.0534 Z
    Strength   :     0.0025676245
    S(    5) --> V(    2) amplitude = -0.2502 alpha
    S(    5) --> V(    4) amplitude = -0.3758 alpha
    S(    5) --> V(    6) amplitude =  0.2348 alpha
    S(    5) --> V(    7) amplitude =  0.4279 alpha
    S(    5) --> V(    8) amplitude =  0.2398 alpha
    S(    5) --> V(   11) amplitude = -0.2607 alpha
    S(    5) --> V(   13) amplitude =  0.2326 alpha
[...]
 -0.5819  -0.5725  -0.5630  -0.5624  -0.5604  -0.5498  -0.5489  -0.5468
 -0.5418  -0.5389  -0.5333  -0.5321  -0.5277  -0.5248  -0.5210  -0.5206
 -0.5163  -0.5157  -0.5093  -0.5083  -0.5012  -0.4989  -0.4973  -0.4955
 -0.4892  -0.4837  -0.4811  -0.4803  -0.4762  -0.4746  -0.4725  -0.4702
 -0.4687  -0.4658  -0.4613  -0.4596  -0.4569  -0.4524  -0.4497  -0.4425
 -0.4401  -0.4392  -0.4372  -0.4336  -0.4316  -0.4297  -0.4277  -0.4196
 -0.4164  -0.4144  -0.4124  -0.4044  -0.4010  -0.3999  -0.3979  -0.3959
 -0.3930  -0.3924  -0.3866  -0.3837  -0.3809  -0.3763  -0.3753  -0.3685
 -0.3665  -0.3599  -0.3475  -0.3413  -0.3293  -0.3270  -0.3257  -0.3242
 -0.3191  -0.3183  -0.3182  -0.3153  -0.3132  -0.3057  -0.2839  -0.2805
 -0.2750  -0.2720  -0.2628  -0.2281  -0.2255
 -- Virtual --
 -0.0256  -0.0232  -0.0196   0.0132   0.0154   0.0168   0.0174   0.0197
  0.0216   0.0226   0.0247   0.0262   0.0266   0.0295   0.0310   0.0327
  0.0338   0.0367   0.0398   0.0404   0.0425   0.0444   0.0451   0.0458
  0.0472   0.0528   0.0544   0.0556   0.0561   0.0582   0.0600   0.0628
  0.0636   0.0646   0.0658   0.0678   0.0691   0.0708   0.0718   0.0742
  0.0757   0.0764   0.0801   0.0814   0.0834   0.0863   0.0865   0.0885
  0.0904   0.0920   0.0934   0.0951   0.0985   0.0988   0.1008   0.1020
  0.1021   0.1051   0.1056   0.1079   0.1099   0.1115   0.1119   0.1135
  0.1152   0.1162   0.1177   0.1189   0.1201   0.1208   0.1219   0.1242
  0.1246   0.1267   0.1274   0.1281   0.1294   0.1312   0.1318   0.1326
  0.1331   0.1349   0.1356   0.1366   0.1388   0.1401   0.1413   0.1423
  0.1439   0.1454   0.1468   0.1482   0.1490   0.1504   0.1518   0.1532
  0.1559   0.1567   0.1585   0.1597   0.1599   0.1612   0.1624   0.1633
  0.1643   0.1650   0.1678   0.1682   0.1694   0.1710   0.1714   0.1727
  0.1734   0.1743   0.1763   0.1786   0.1798   0.1805   0.1807   0.1821
  0.1832   0.1860   0.1881   0.1889   0.1912   0.1924   0.1928   0.1942
  0.1955   0.1973   0.1987   0.2003   0.2016   0.2033   0.2037   0.2061
  0.2067   0.2091   0.2113   0.2124   0.2137   0.2158   0.2175   0.2183
  0.2202   0.2205   0.2224   0.2237   0.2261   0.2270   0.2295   0.2304
  0.2310   0.2318   0.2330   0.2346   0.2379   0.2385   0.2397   0.2411
  0.2426   0.2431   0.2442   0.2457   0.2463   0.2484   0.2492   0.2508
  0.2513   0.2541   0.2546   0.2560   0.2569   0.2576   0.2595   0.2611
  0.2623   0.2632   0.2643   0.2652   0.2662   0.2667   0.2676   0.2698
  0.2707   0.2715   0.2726   0.2730   0.2765   0.2777   0.2784   0.2798
  0.2812   0.2825   0.2835   0.2844   0.2856   0.2873   0.2888   0.2898
  0.2920   0.2925   0.2938   0.2948   0.2954   0.2967   0.2988   0.2997
  0.3005   0.3018   0.3044   0.3056   0.3061   0.3076   0.3085   0.3095
  0.3111   0.3122   0.3133   0.3148   0.3149   0.3173   0.3180   0.3188
  0.3213   0.3235   0.3237   0.3256   0.3277   0.3284   0.3298   0.3304
  0.3324   0.3344   0.3349   0.3365   0.3383   0.3388   0.3395   0.3404
  0.3415   0.3422   0.3438   0.3459   0.3473   0.3497   0.3508   0.3513
  0.3531   0.3540   0.3554   0.3561   0.3585   0.3597   0.3603   0.3618
  0.3636   0.3651   0.3669   0.3678   0.3692   0.3697   0.3725   0.3741
  0.3751   0.3755   0.3782   0.3791   0.3813   0.3819   0.3827   0.3839
  0.3848   0.3873   0.3875   0.3881   0.3906   0.3933   0.3950   0.3956
  0.3968   0.3983   0.3997   0.4005   0.4021   0.4031   0.4064   0.4091
  0.4101   0.4106   0.4127   0.4142   0.4151   0.4167   0.4179   0.4179
  0.4201   0.4215   0.4222   0.4233   0.4241   0.4271   0.4292   0.4294
  0.4307   0.4312   0.4333   0.4344   0.4368   0.4391   0.4401   0.4412
  0.4420   0.4433   0.4457   0.4470   0.4488   0.4493   0.4511   0.4520
  0.4527   0.4568   0.4587   0.4607   0.4621   0.4625   0.4630   0.4670
  0.4674   0.4680   0.4703   0.4724   0.4737   0.4743   0.4764   0.4789
  0.4798   0.4816   0.4832   0.4856   0.4870   0.4895   0.4903   0.4924
  0.4936   0.4949   0.4959   0.4966   0.4976   0.4978   0.5019   0.5030
  0.5047   0.5072   0.5086   0.5096   0.5103   0.5116   0.5138   0.5153
  0.5175   0.5207   0.5228   0.5247   0.5258   0.5276   0.5286   0.5293
  0.5298   0.5327   0.5342   0.5356   0.5361   0.5378   0.5400   0.5403
  0.5454   0.5464   0.5484   0.5503   0.5527   0.5544   0.5552   0.5562
  0.5582   0.5593   0.5620   0.5632   0.5643   0.5659   0.5673   0.5716
  0.5725   0.5732   0.5749   0.5771   0.5791   0.5807   0.5818   0.5829
  0.5842   0.5844   0.5864   0.5866   0.5887   0.5903   0.5912   0.5923
  0.5946   0.5978   0.5980   0.6000   0.6017   0.6027   0.6059   0.6088
  0.6095   0.6110   0.6136   0.6158   0.6169   0.6177   0.6196   0.6214
  0.6235   0.6254   0.6262   0.6294   0.6312   0.6318   0.6334   0.6360
  0.6375   0.6392   0.6421   0.6424   0.6442   0.6452   0.6465   0.6474
  0.6500   0.6512   0.6518   0.6529   0.6535   0.6551   0.6588   0.6602
  0.6606   0.6630   0.6656   0.6676   0.6699   0.6705   0.6724   0.6733
  0.6744   0.6767   0.6779   0.6814   0.6819   0.6844   0.6852   0.6881
  0.6905   0.6911   0.6937   0.6955   0.6957   0.6985   0.6992   0.7007
  0.7019   0.7037   0.7056   0.7068   0.7077   0.7083   0.7115   0.7144
  0.7159   0.7167   0.7201   0.7214   0.7216   0.7253   0.7256   0.7269
  0.7285   0.7286   0.7302   0.7316   0.7340   0.7341   0.7356   0.7361
  0.7384   0.7404   0.7439   0.7449   0.7465   0.7479   0.7496   0.7518
  0.7528   0.7535   0.7548   0.7562   0.7585   0.7596   0.7616   0.7620
  0.7640   0.7659   0.7673   0.7680   0.7704   0.7725   0.7745   0.7750
  0.7767   0.7773   0.7800   0.7813   0.7827   0.7858   0.7863   0.7889
  0.7890   0.7901   0.7930   0.7953   0.7960   0.7969   0.7982   0.7999
  0.8026   0.8052   0.8063   0.8086   0.8102   0.8134   0.8140   0.8164
  0.8182   0.8205   0.8231   0.8241   0.8247   0.8270   0.8281   0.8307
  0.8314   0.8338   0.8349   0.8357   0.8379   0.8418   0.8432   0.8453
  0.8465   0.8492   0.8513   0.8519   0.8538   0.8589   0.8596   0.8606
  0.8633   0.8640   0.8670   0.8673   0.8687   0.8721   0.8738   0.8744
  0.8764   0.8782   0.8818   0.8832   0.8852   0.8857   0.8875   0.8908
  0.8924   0.8932   0.8956   0.8970   0.8984   0.8995   0.9034   0.9053
  0.9079   0.9112   0.9134   0.9139   0.9163   0.9176   0.9208   0.9221
  0.9241   0.9263   0.9289   0.9311   0.9322   0.9340   0.9345   0.9357
  0.9388   0.9429   0.9440   0.9460   0.9504   0.9507   0.9539   0.9549
  0.9575   0.9601   0.9632   0.9639   0.9654   0.9674   0.9680   0.9714
  0.9762   0.9784   0.9826   0.9838   0.9858   0.9896   0.9908   0.9918
  0.9954   0.9962   0.9984   0.9998   1.0041   1.0048   1.0100   1.0125
  1.0167   1.0184   1.0197   1.0243   1.0274   1.0299   1.0329   1.0341
  1.0349   1.0398   1.0428   1.0431   1.0487   1.0526   1.0534   1.0584
  1.0586   1.0614   1.0640   1.0662   1.0680   1.0705   1.0719   1.0760
  1.0769   1.0815   1.0843   1.0869   1.0897   1.0936   1.0958   1.0972
  1.0982   1.1032   1.1044   1.1088   1.1095   1.1126   1.1149   1.1168
  1.1201   1.1228   1.1230   1.1267   1.1295   1.1306   1.1320   1.1364
  1.1416   1.1453   1.1477   1.1496   1.1530   1.1545   1.1588   1.1621
  1.1646   1.1691   1.1722   1.1770   1.1795   1.1816   1.1833   1.1864
  1.1896   1.1903   1.1925   1.1967   1.1988   1.2011   1.2039   1.2063
  1.2070   1.2125   1.2191   1.2212   1.2229   1.2257   1.2285   1.2307
  1.2331   1.2410   1.2425   1.2460   1.2470   1.2485   1.2533   1.2586
  1.2603   1.2628   1.2661   1.2701   1.2788   1.2791   1.2809   1.2861
  1.2884   1.2901   1.2919   1.2986   1.3030   1.3042   1.3055   1.3116
  1.3127   1.3162   1.3177   1.3221   1.3256   1.3275   1.3304   1.3344
  1.3400   1.3433   1.3449   1.3464   1.3481   1.3531   1.3545   1.3570
  1.3634   1.3677   1.3687   1.3706   1.3732   1.3751   1.3774   1.3820
  1.3866   1.3882   1.3923   1.3942   1.3977   1.4025   1.4032   1.4072
  1.4137   1.4163   1.4172   1.4248   1.4265   1.4287   1.4330   1.4360
  1.4389   1.4431   1.4459   1.4477   1.4518   1.4540   1.4562   1.4571
  1.4606   1.4642   1.4668   1.4694   1.4714   1.4773   1.4808   1.4832
  1.4852   1.4892   1.4950   1.4981   1.5009   1.5049   1.5090   1.5108
  1.5163   1.5171   1.5239   1.5270   1.5295   1.5310   1.5317   1.5366
  1.5386   1.5434   1.5443   1.5463   1.5539   1.5576   1.5578   1.5631
  1.5648   1.5662   1.5706   1.5726   1.5788   1.5805   1.5846   1.5860
  1.5933   1.5950   1.5966   1.5995   1.6023   1.6043   1.6054   1.6126
  1.6157   1.6192   1.6208   1.6249   1.6262   1.6308   1.6315   1.6351
  1.6381   1.6386   1.6423   1.6452   1.6460   1.6516   1.6543   1.6581
  1.6611   1.6616   1.6638   1.6661   1.6698   1.6724   1.6729   1.6766
  1.6800   1.6815   1.6884   1.6915   1.6929   1.6963   1.6977   1.7019
  1.7054   1.7079   1.7104   1.7123   1.7167   1.7178   1.7199   1.7220
  1.7272   1.7298   1.7336   1.7340   1.7351   1.7375   1.7434   1.7456
  1.7493   1.7518   1.7524   1.7568   1.7595   1.7625   1.7670   1.7679
  1.7693   1.7754   1.7762   1.7784   1.7814   1.7824   1.7879   1.7884
  1.7900   1.7928   1.7962   1.7979   1.8032   1.8037   1.8050   1.8062
  1.8101   1.8152   1.8215   1.8229   1.8247   1.8263   1.8286   1.8352
  1.8393   1.8402   1.8440   1.8462   1.8476   1.8532   1.8545   1.8595
  1.8627   1.8648   1.8685   1.8694   1.8735   1.8744   1.8791   1.8848
  1.8884   1.8898   1.8922   1.8932   1.8958   1.9009   1.9041   1.9044
  1.9061   1.9115   1.9133   1.9210   1.9223   1.9244   1.9289   1.9325
  1.9368   1.9412   1.9428   1.9443   1.9474   1.9507   1.9524   1.9537
  1.9572   1.9607   1.9626   1.9632   1.9668   1.9688   1.9713   1.9762
  1.9773   1.9785   1.9817   1.9853   1.9885   1.9928   1.9949   1.9993
  2.0011   2.0037   2.0057   2.0076   2.0113   2.0121   2.0136   2.0184
  2.0206   2.0222   2.0266   2.0292   2.0305   2.0336   2.0354   2.0402
  2.0442   2.0457   2.0477   2.0514   2.0535   2.0558   2.0591   2.0617
  2.0638   2.0680   2.0720   2.0745   2.0760   2.0791   2.0826   2.0834
  2.0854   2.0917   2.0941   2.0974   2.1010   2.1027   2.1068   2.1110
  2.1115   2.1149   2.1192   2.1200   2.1232   2.1256   2.1273   2.1301
  2.1320   2.1353   2.1360   2.1378   2.1410   2.1423   2.1460   2.1477
  2.1531   2.1559   2.1572   2.1652   2.1678   2.1751   2.1763   2.1777
  2.1817   2.1847   2.1857   2.1881   2.1899   2.1928   2.1935   2.2006
  2.2040   2.2056   2.2085   2.2133   2.2156   2.2172   2.2217   2.2228
  2.2298   2.2317   2.2356   2.2381   2.2411   2.2441   2.2482   2.2553
  2.2578   2.2617   2.2637   2.2665   2.2683   2.2765   2.2784   2.2788
  2.2814   2.2872   2.2907   2.2915   2.2953   2.2959   2.2978   2.3035
  2.3101   2.3128   2.3155   2.3178   2.3202   2.3238   2.3259   2.3273
  2.3295   2.3341   2.3391   2.3421   2.3452   2.3512   2.3527   2.3551
  2.3618   2.3633   2.3645   2.3689   2.3742   2.3780   2.3805   2.3853
  2.3930   2.3947   2.4013   2.4052   2.4098   2.4123   2.4146   2.4174
  2.4231   2.4253   2.4278   2.4354   2.4438   2.4464   2.4487   2.4500
  2.4542   2.4575   2.4648   2.4665   2.4686   2.4723   2.4757   2.4805
  2.4882   2.4889   2.4925   2.5020   2.5040   2.5079   2.5089   2.5199
  2.5232   2.5292   2.5341   2.5362   2.5403   2.5461   2.5511   2.5551
  2.5558   2.5578   2.5640   2.5643   2.5713   2.5763   2.5803   2.5858
  2.5899   2.5951   2.6015   2.6038   2.6063   2.6109   2.6137   2.6213
  2.6242   2.6268   2.6332   2.6387   2.6412   2.6448   2.6496   2.6535
  2.6552   2.6674   2.6704   2.6781   2.6799   2.6839   2.6919   2.6956
  2.7011   2.7037   2.7108   2.7138   2.7168   2.7219   2.7263   2.7277
  2.7332   2.7421   2.7485   2.7532   2.7584   2.7635   2.7648   2.7681
  2.7711   2.7760   2.7837   2.7870   2.7936   2.7938   2.7959   2.8088
  2.8120   2.8180   2.8197   2.8209   2.8259   2.8318   2.8372   2.8389
  2.8410   2.8492   2.8565   2.8576   2.8594   2.8624   2.8652   2.8704
  2.8756   2.8793   2.8860   2.8919   2.9031   2.9097   2.9224   2.9253
  2.9323   2.9344   2.9453   2.9524   2.9572   2.9645   2.9702   2.9748
  2.9813   2.9934   3.0008   3.0022   3.0069   3.0139   3.0249   3.0326
  3.0342   3.0491   3.0579   3.0685   3.0725   3.0793   3.0916   3.0920
  3.1018   3.1099   3.1267   3.1317   3.1362   3.1467   3.1582   3.1652
  3.1807   3.2033   3.2230   3.2331   3.2467   3.2510   3.2590   3.2668
  3.2892   3.2986   3.3097   3.3156   3.3288   3.3354   3.3512   3.3691
  3.3858   3.3942   3.4111   3.4182   3.4290   3.4366   3.4382   3.4559
  3.4741   3.4851   3.5034   3.5063   3.5431   3.5448   3.5556   3.5630
  3.5644   3.5764   3.5809   3.5945   3.6047   3.6103   3.6213   3.6294
  3.6367   3.6409   3.6514   3.6577   3.6684   3.6751   3.6886   3.6996
  3.7009   3.7225   3.7248   3.7323   3.7456   3.7543   3.7596   3.7772
  3.7812   3.7960   3.8028   3.8091   3.8160   3.8251   3.8368   3.8498
  3.8541   3.8615   3.8673   3.8855   3.8905   3.8999   3.9135   3.9278
  3.9477   3.9567   3.9771   3.9839   3.9972   4.0077   4.0309   4.0546
  4.0634   4.0842   4.0998   4.1008   4.1123   4.1299   4.1800   4.1957
  4.2168   4.2466   4.2650   4.3528   4.4361   4.5291   4.5723   4.6996
  4.7246   4.8147   4.8656
 --------------------------------------------------------------
 
          Ground-State Mulliken Net Atomic Charges

     Atom                 Charge (a.u.)    Spin (a.u.)
  --------------------------------------------------------
      1 C                     0.345960      -0.016384
      2 C                     0.612016       0.019230
      3 C                     1.143107      -0.004411
      4 C                     1.899631       0.013460
      5 C                     0.873347       0.024900
      6 C                     0.366598      -0.009829
      7 H                    -1.153620      -0.000219
      8 O                    -1.082855       0.139146
      9 C                    -0.070243      -0.002243
     10 O                    -0.856001       0.000457
     11 N                     0.068436       0.001325
     12 H                    -0.132357      -0.000271
     13 C                     1.045006      -0.000220
     14 H                    -0.596215       0.000056
     15 H                    -0.537302      -0.000010
     16 C                     1.349473       0.000156
     17 H                    -0.498621       0.000009
     18 H                    -0.567180       0.000007
     19 C                     1.536903       0.000098
     20 H                    -0.566912       0.000041
     21 H                    -0.690557      -0.000017
     22 N                    -0.283305       0.000084
     23 H                    -0.013425      -0.000000
     24 C                     1.353109       0.000378
     25 H                    -0.407956       0.000001
     26 H                    -0.545897       0.000005
     27 C                     1.052813      -0.000429
     28 H                    -0.615316      -0.000036
     29 H                    -1.127335       0.000473
     30 C                     1.047393       0.001499
     31 H                    -0.597906       0.000079
     32 H                    -0.395292       0.000067
     33 C                     1.760645      -0.001879
     34 H                    -0.866221      -0.002517
     35 H                    -0.536048       0.000371
     36 N                     0.001193       0.005091
     37 H                    -0.151661       0.000746
     38 C                     0.133567      -0.004215
     39 O                    -0.520186       0.077470
     40 C                     1.871272       0.019843
     41 H                    -1.211912      -0.000258
     42 C                     1.313433       0.011522
     43 H                    -0.264663      -0.000024
     44 H                    -0.651230       0.000215
     45 C                     0.553833      -0.001868
     46 O                    -0.849086       0.000649
     47 N                     0.487583       0.000920
     48 C                     1.209518       0.000351
     49 H                    -0.570090       0.001251
     50 C                     1.663792      -0.000039
     51 H                    -0.641165      -0.000160
     52 H                    -0.640536      -0.000049
     53 C                     0.953840       0.000132
     54 H                    -0.550782       0.000015
     55 H                    -0.904788      -0.000558
     56 C                     1.151973      -0.000023
     57 H                    -0.564565      -0.000001
     58 H                    -0.569598      -0.000102
     59 H                    -0.460199       0.000004
     60 H                    -0.620678      -0.000000
     61 C                    -0.184344      -0.003218
     62 C                     1.891551       0.002902
     63 O                    -0.877872       0.000084
     64 C                     1.155083       0.003890
     65 C                     0.942014       0.036791
     66 C                     0.727478       0.016631
     67 C                     0.518725      -0.022164
     68 C                    -0.107595      -0.014946
     69 H                    -1.121766       0.000098
     70 O                    -1.106132       0.153839
     71 C                    -0.741462      -0.015335
     72 O                    -0.737268       0.084902
     73 H                    -1.294334       0.000048
     74 O                    -0.983466       0.137537
     75 H                    -1.339396       0.000714
     76 O                    -1.109419       0.117724
     77 Fe                    2.066077       4.225194
     78 N                    -0.258331      -0.000007
     79 H                    -0.038169       0.000029
     80 N                     0.224272       0.001323
     81 H                    -0.153903      -0.000212
     82 C                     1.071279      -0.000156
     83 H                    -0.478592      -0.000009
     84 H                    -0.615823       0.000048
     85 C                     1.187067       0.000087
     86 H                    -0.467845       0.000011
     87 H                    -0.403777       0.000005
     88 C                     1.537518      -0.000125
     89 H                    -0.641080      -0.000017
     90 H                    -0.574892       0.000035
     91 H                    -1.370879      -0.000078
     92 H                    -1.197461       0.000089
  --------------------------------------------------------
  Sum of atomic charges =    -2.000000
  Sum of spin   charges =     5.000000

 -----------------------------------------------------------------
                    Cartesian Multipole Moments
 -----------------------------------------------------------------
    Charge (ESU x 10^10)
                -9.6064
    Dipole Moment (Debye)
         X       6.3792      Y      12.8416      Z      11.0452
       Tot      18.0997
    Quadrupole Moments (Debye-Ang)
        XX    -356.0302     XY       6.8854     YY    -357.8583
        XZ       1.2876     YZ       9.1310     ZZ    -351.8071
    Octopole Moments (Debye-Ang^2)
       XXX     877.7792    XXY     182.9478    XYY     139.6458
       YYY     156.8831    XXZ     543.9709    XYZ     -69.4453
       YYZ     123.7747    XZZ    -125.2560    YZZ      45.6264
       ZZZ     251.0318
    Hexadecapole Moments (Debye-Ang^3)
      XXXX  -48964.0071   XXXY    -418.1744   XXYY   -9909.4311
      XYYY     265.4467   YYYY   -5846.0273   XXXZ    -567.9216
      XXYZ    -241.7296   XYYZ     112.7672   YYYZ     408.3904
      XXZZ   -9680.1682   XYZZ     294.6606   YYZZ   -1935.8679
      XZZZ    1002.8058   YZZZ     196.3565   ZZZZ   -5128.6586
 -----------------------------------------------------------------
 Total job time:  672977.81s(wall), 11424765.90s(cpu) 
 Wed Mar  6 06:24:09 2024

        *************************************************************
        *                                                           *
        *  Thank you very much for using Q-Chem.  Have a nice day.  *
        *                                                           *
        *************************************************************


