
Running Job 1 of 1 C_FePBstar_enol_ctL_S_2sextet_camb3lyo_augccpVDZ_pcmH2O_tddft100.in
qchem C_FePBstar_enol_ctL_S_2sextet_camb3lyo_augccpVDZ_pcmH2O_tddft100.in_3300070.0 /data/scratch/C_FePBstar_enol_ctL_S_2sextet_camb3lyo_augccpVDZ_pcmH2O_tddft10020240229103621/ 0
/opt/qchem/6.0.1/exe/qcprog.exe_s C_FePBstar_enol_ctL_S_2sextet_camb3lyo_augccpVDZ_pcmH2O_tddft100.in_3300070.0 /data/scratch/C_FePBstar_enol_ctL_S_2sextet_camb3lyo_augccpVDZ_pcmH2O_tddft10020240229103621/
                  Welcome to Q-Chem
     A Quantum Leap Into The Future Of Chemistry


 Q-Chem 6.0, Q-Chem, Inc., Pleasanton, CA (2022)

 E. Epifanovsky,  A. T. B. Gilbert,  Xintian Feng,  Joonho Lee,  Yuezhi Mao,  
 N. Mardirossian,  P. Pokhilko,  A. White,  M. Wormit,  M. P. Coons,  
 A. L. Dempwolff,  Zhengting Gan,  D. Hait,  P. R. Horn,  L. D. Jacobson,  
 I. Kaliman,  J. Kussmann,  A. W. Lange,  Ka Un Lao,  D. S. Levine,  Jie Liu,  
 S. C. McKenzie,  A. F. Morrison,  K. Nanda,  F. Plasser,  D. R. Rehn,  
 M. L. Vidal,  Zhi-Qiang You,  Ying Zhu,  B. Alam,  B. Albrecht,  
 A. Aldossary,  E. Alguire,  J. H. Andersen,  V. Athavale,  D. Barton,  
 K. Begam,  A. Behn,  N. Bellonzi,  Y. A. Bernard,  E. J. Berquist,  
 H. Burton,  A. Carreras,  K. Carter-Fenk,  Romit Chakraborty,  
 Chandrima Chakravarty,  Junhan Chen,  A. D. Chien,  K. D. Closser,  
 V. Cofer-Shabica,  L. Cunha,  S. Dasgupta,  Jia Deng,  M. de Wergifosse,  
 M. Diedenhofen,  Hainam Do,  S. Ehlert,  Po-Tung Fang,  S. Fatehi,  
 Qingguo Feng,  T. Friedhoff,  B. Ganoe,  J. Gayvert,  Qinghui Ge,  
 G. Gidofalvi,  M. Goldey,  J. Gomes,  C. Gonzalez-Espinoza,  S. Gulania,  
 A. Gunina,  J. A. Gyamfi,  M. W. D. Hanson-Heine,  P. H. P. Harbach,  
 A. W. Hauser,  M. F. Herbst,  M. Hernandez Vera,  M. Hodecker,  
 Z. C. Holden,  S. Houck,  Xunkun Huang,  Kerwin Hui,  B. C. Huynh,  
 K. Ikeda,  M. Ivanov,  Hyunjun Ji,  Zuxin Jin,  Hanjie Jiang,  B. Kaduk,  
 S. Kaehler,  R. Kang,  K. Khistyaev,  Jaehoon Kim,  Yongbin Kim,  
 P. Klunzinger,  Z. Koczor-Benda,  Joong Hoon Koh,  D. Kosenkov,  
 Saikiran Kotaru,  L. Koulias,  T. Kowalczyk,  C. M. Krauter,  K. Kue,  
 A. Kunitsa,  T. Kus,  A. Landau,  K. V. Lawler,  D. Lefrancois,  S. Lehtola,  
 Rain Li,  Shaozhi Li,  Yi-Pei Li,  Jiashu Liang,  M. Liebenthal,  
 Hung-Hsuan Lin,  You-Sheng Lin,  Fenglai Liu,  Kuan-Yu Liu,  
 M. Loipersberger,  A. Luenser,  C. Malbon,  A. Manjanath,  P. Manohar,  
 E. Mansoor,  S. F. Manzer,  Shan-Ping Mao,  A. V. Marenich,  T. Markovich,  
 S. Mason,  F. Matz,  S. A. Maurer,  P. F. McLaughlin,  M. F. S. J. Menger,  
 J.-M. Mewes,  S. A. Mewes,  P. Morgante,  Mohammad Mostafanejad,  
 J. W. Mullinax,  K. J. Oosterbaan,  G. Paran,  V. Parravicini,  
 Alexander C. Paul,  Suranjan K. Paul,  F. Pavosevic,  Zheng Pei,  S. Prager,  
 E. I. Proynov,  E. Ramos,  B. Rana,  A. E. Rask,  A. Rettig,  R. M. Richard,  
 F. Rob,  E. Rossomme,  T. Scheele,  M. Scheurer,  M. Schneider,  
 P. E. Schneider,  N. Sergueev,  S. M. Sharada,  Hengyuan Shen,  
 W. Skomorowski,  D. W. Small,  C. J. Stein,  Yingli Su,  Yu-Chuan Su,  
 E. J. Sundstrom,  Zhen Tao,  J. Thirman,  Hung-Yi Tsai,  T. Tsuchimochi,  
 N. M. Tubman,  C. Utku,  S. P. Veccham,  O. Vydrov,  J. Wenzel,  
 Jonathan Wong,  J. Witte,  A. Yamada,  Chou-Hsun Yang,  Kun Yao,  
 S. Yeganeh,  S. R. Yost,  A. Zech,  F. Zeller,  Igor Ying Zhang,  
 Xing Zhang,  Yu Zhang,  D. Zuev,  A. Aspuru-Guzik,  A. T. Bell,  
 N. A. Besley,  K. B. Bravaya,  B. R. Brooks,  D. Casanova,  Jeng-Da Chai,  
 Hsing-Ta Chen,  S. Coriani,  C. J. Cramer,  A. E. DePrince, III,  
 R. A. DiStasio Jr.,  A. Dreuw,  B. D. Dunietz,  T. R. Furlani,  
 W. A. Goddard III,  S. Grimme,  S. Hammes-Schiffer,  T. Head-Gordon,  
 W. J. Hehre,  Chao-Ping Hsu,  T.-C. Jagau,  Yousung Jung,  A. Klamt,  
 Jing Kong,  D. S. Lambrecht,  Xiangyuan Li,  WanZhen Liang,  N. J. Mayhall,  
 C. W. McCurdy,  J. B. Neaton,  T. Neudecker,  C. Ochsenfeld,  
 J. A. Parkhill,  R. Peverati,  V. A. Rassolov,  Haisheng Ren,  Yihan Shao,  
 L. V. Slipchenko,  R. P. Steele,  J. E. Subotnik,  A. J. W. Thom,  
 A. Tkatchenko,  D. G. Truhlar,  T. Van Voorhis,  Fan Wang,  
 T. A. Wesolowski,  K. B. Whaley,  H. L. Woodcock III,  P. M. Zimmerman,  
 S. Faraji,  P. M. W. Gill,  M. Head-Gordon,  J. M. Herbert,  A. I. Krylov

 Contributors to earlier versions of Q-Chem not listed above: 
 R. D. Adamson,  B. Austin,  R. Baer,  J. Baker,  G. J. O. Beran,  
 K. Brandhorst,  S. T. Brown,  E. F. C. Byrd,  Arup K. Chakraborty,  
 G. K. L. Chan,  Chun-Min Chang,  Yunqing Chen,  C.-L. Cheng,  
 Siu Hung Chien,  D. M. Chipman,  D. L. Crittenden,  H. Dachsel,  
 R. J. Doerksen,  A. D. Dutoi,  R. G. Edgar,  J. Fosso-Tande,  
 L. Fusti-Molnar,  D. Ghosh,  A. Ghysels,  A. Golubeva-Zadorozhnaya,  
 J. Gonthier,  M. S. Gordon,  S. R. Gwaltney,  G. Hawkins,  J. E. Herr,  
 A. Heyden,  S. Hirata,  E. G. Hohenstein,  G. Kedziora,  F. J. Keil,  
 C. Kelley,  Jihan Kim,  R. A. King,  R. Z. Khaliullin,  P. P. Korambath,  
 W. Kurlancheek,  A. Laurent,  A. M. Lee,  M. S. Lee,  S. V. Levchenko,  
 Ching Yeh Lin,  D. Liotard,  E. Livshits,  R. C. Lochan,  I. Lotan,  
 L. A. Martinez-Martinez,  P. E. Maslen,  N. Nair,  D. P. O'Neill,  
 D. Neuhauser,  E. Neuscamman,  C. M. Oana,  R. Olivares-Amaya,  R. Olson,  
 T. M. Perrine,  B. Peters,  P. A. Pieniazek,  A. Prociuk,  Y. M. Rhee,  
 J. Ritchie,  M. A. Rohrdanz,  E. Rosta,  N. J. Russ,  H. F. Schaefer III,  
 M. W. Schmidt,  N. E. Schultz,  S. Sharma,  N. Shenvi,  C. D. Sherrill,  
 A. C. Simmonett,  A. Sodt,  T. Stein,  D. Stuck,  K. S. Thanthiriwatte,  
 V. Vanovschi,  L. Vogt,  Tao Wang,  A. Warshel,  M. A. Watson,  
 C. F. Williams,  Q. Wu,  X. Xu,  Jun Yang,  W. Zhang,  Yan Zhao

   Please cite Q-Chem as follows:
  "Software for the frontiers of quantum chemistry:
   An overview of developments in the Q-Chem 5 package"
   J. Chem. Phys. 155, 084801 (2021)
   https://doi.org/10.1063/5.0055522 (open access)

 Q-Chem 6.0.2 for Intel X86 EM64T Linux

 Parts of Q-Chem use Armadillo 9.900.5 (Nocturnal Misbehaviour).
 http://arma.sourceforge.net/

 Q-Chem begins on Thu Feb 29 22:44:14 2024  

 Host: 
0

     Scratch files written to /data/scratch/C_FePBstar_enol_ctL_S_2sextet_camb3lyo_augccpVDZ_pcmH2O_tddft10020240229103621//
 Dec722 |scratch|qcdevops|jenkins|workspace|build_RNUM 8907   
 Processing $rem in /opt/qchem/6.0.1/config/preferences:
 Processing $rem in /home/sgardner/.qchemrc:
 Symmetry turned off for PCM/SM12/SMD calculation

 Checking the input file for inconsistencies... 	...done.

--------------------------------------------------------------
User input:
--------------------------------------------------------------
$molecule
-2 6
C    2.9547686   -1.4498062   -2.0313799
C    4.1752150   -1.1245272   -2.6247880
C    5.3827751   -1.7347629   -2.1973219
C    5.3313383   -2.7236219   -1.2027307
C    4.1198456   -3.0624527   -0.5878544
C    2.9263396   -2.4191692   -0.9579856
H    4.1651977   -0.3705496   -3.4171268
O    1.7928767   -0.8960544   -2.3579510
C    6.7269564   -1.2512813   -2.6058419
O    7.7687517   -1.8786074   -2.3562571
N    6.7695564   -0.0188913   -3.2188867
H    5.8917862    0.4905878   -3.2251899
C    7.7416425    1.8104812   -1.8794762
H    6.8200659    2.3943132   -2.0573063
H    8.5746885    2.5339760   -1.8521036
C    7.5915534    1.1020432   -0.5316699
H    8.5846538    0.7411615   -0.1821491
H    6.9658548    0.2052363   -0.6561900
N    6.9081563    1.9355298    0.4542571
H    7.4744797    2.7656390    0.6485184
C    5.8751114    2.0653940    2.7053993
H    5.7224019    1.4630533    3.6179625
H    6.4819816    2.9379525    3.0055576
C    6.6718940    1.2233449    1.7089777
H    7.6153002    0.8853173    2.1919021
H    6.1116625    0.3043449    1.4627264
C    4.5225725    2.5713807    2.1893617
H    4.0135457    3.1121797    3.0061232
H    4.6815687    3.2913680    1.3695266
C    3.6029410    1.4629532    1.6833584
H    4.0306830    0.9857701    0.7862183
N    2.2916511    2.0110892    1.3594436
H    2.1425676    3.0049188    1.4963035
C    1.3522373    1.3291190    0.6543643
O    1.6090552    0.1231685    0.3367955
C    0.1148551    2.0003017    0.3636855
H   -0.1144304    2.9153476    0.9118127
C   -2.2116413    2.1346583   -0.5182678
H   -2.7594753    1.6483912    0.3066310
H   -2.1452368    3.2069072   -0.2896715
C   -2.9903376    1.9756968   -1.8137928
O   -2.9061096    2.8060561   -2.7273388
N   -3.7893674    0.8839258   -1.8698859
C   -4.7109266    0.6095583   -2.9627667
H   -3.7647906    0.2238190   -1.0968820
C   -6.1651136    0.5844463   -2.4797235
H   -4.4504349   -0.3582523   -3.4202963
H   -4.5533246    1.3982406   -3.7115565
C   -6.6449116    1.9227561   -1.9137494
H   -6.8098828    0.2789924   -3.3231341
H   -6.2640192   -0.2048403   -1.7177192
C   -7.9574866    1.8242141   -1.1158206
H   -6.7819904    2.6480598   -2.7360382
H   -5.8614468    2.3429435   -1.2619565
H   -8.2717552    2.8449144   -0.8302810
H   -8.7525932    1.4207153   -1.7673973
C   -5.8723968   -1.7500003    0.6117931
C   -4.4779010   -2.5228140   -1.2732933
O   -6.9160253   -1.8965831   -0.0605552
C   -4.5305308   -1.9938157    0.0250132
C   -3.2598132   -2.6573525   -1.9472319
C   -3.3165462   -1.6398309    0.6728325
C   -2.0576190   -2.2612533   -1.3367038
C   -2.0847957   -1.7920860    0.0316456
H   -3.3002338   -1.2102614    1.6774572
O   -0.8836412   -2.2691805   -1.9354695
C   -0.8184120    1.5085669   -0.5357545
O   -0.6362794    0.5330613   -1.3560822
H    4.0922778   -3.7977309    0.2216020
O    1.7584373   -2.6209748   -0.3784324
H   -3.2306083   -3.0301084   -2.9748368
O   -0.9145508   -1.4829432    0.5750227
Fe    0.4502313   -1.1701606   -0.8892092
N   -7.9319963    1.0047733    0.1004860
H   -7.7814227    0.0256301   -0.1564250
N   -5.9322951   -1.3337896    1.9077208
H   -5.0620935   -1.1624010    2.3965808
C   -7.1369255   -0.7486151    2.4783031
H   -7.9830628   -1.1414788    1.9007035
H   -7.2474407   -1.0962395    3.5170225
C   -7.1269708    0.7879363    2.4430764
H   -8.0947150    1.1423636    2.8384058
H   -6.3397102    1.1586801    3.1232786
C   -6.8911564    1.3902383    1.0558082
H   -6.9015350    2.4901279    1.1463141
H   -5.8700084    1.1196448    0.7148216
H   -5.4143782   -2.7901183   -1.7624889
H    6.2659628   -3.1819183   -0.8765351
H    3.4974505    0.6683152    2.4446051
C    7.9378472    0.8445530   -3.0589885
H    8.1027454    1.4147958   -3.9862495
H    8.8057192    0.1888807   -2.9074592
$end

$rem
BASIS  =  gen
CIS_N_ROOTS  =  100
EXCHANGE  =  CAM-B3LYP
GUI  =  2
JOB_TYPE  =  SP
SCF_CONVERGENCE  =  8
SOLVENT_METHOD  =  PCM
UNRESTRICTED  =  1
BASIS GEN
PURECART 11
MEM_TOTAL  =  30000
$end

$pcm
THEORY  CPCM
$end

$solvent
DIELECTRIC  78.39
$end

$van_der_waals
26   2.44
$end

!----------------------------------------------------------------------
! Basis Set Exchange
! Basis set: aug-cc-pVDZ
!----------------------------------------------------------------------

$basis
H     0
S   4   1.00
1.301000D+01           1.968500D-02
1.962000D+00           1.379770D-01
4.446000D-01           4.781480D-01
1.220000D-01           5.012400D-01
S   1   1.00
1.220000D-01           1.000000D+00
S   1   1.00
0.0297400              1.0000000
P   1   1.00
7.270000D-01           1.0000000
P   1   1.00
0.1410000              1.0000000
****
C     0
S   9   1.00
6.665000D+03           6.920000D-04
1.000000D+03           5.329000D-03
2.280000D+02           2.707700D-02
6.471000D+01           1.017180D-01
2.106000D+01           2.747400D-01
7.495000D+00           4.485640D-01
2.797000D+00           2.850740D-01
5.215000D-01           1.520400D-02
1.596000D-01          -3.191000D-03
S   9   1.00
6.665000D+03          -1.460000D-04
1.000000D+03          -1.154000D-03
2.280000D+02          -5.725000D-03
6.471000D+01          -2.331200D-02
2.106000D+01          -6.395500D-02
7.495000D+00          -1.499810D-01
2.797000D+00          -1.272620D-01
5.215000D-01           5.445290D-01
1.596000D-01           5.804960D-01
S   1   1.00
1.596000D-01           1.000000D+00
S   1   1.00
0.0469000              1.0000000
P   4   1.00
9.439000D+00           3.810900D-02
2.002000D+00           2.094800D-01
5.456000D-01           5.085570D-01
1.517000D-01           4.688420D-01
P   1   1.00
1.517000D-01           1.000000D+00
P   1   1.00
0.0404100              1.0000000
D   1   1.00
5.500000D-01           1.0000000
D   1   1.00
0.1510000              1.0000000
****
N     0
S   9   1.00
9.046000D+03           7.000000D-04
1.357000D+03           5.389000D-03
3.093000D+02           2.740600D-02
8.773000D+01           1.032070D-01
2.856000D+01           2.787230D-01
1.021000D+01           4.485400D-01
3.838000D+00           2.782380D-01
7.466000D-01           1.544000D-02
2.248000D-01          -2.864000D-03
S   9   1.00
9.046000D+03          -1.530000D-04
1.357000D+03          -1.208000D-03
3.093000D+02          -5.992000D-03
8.773000D+01          -2.454400D-02
2.856000D+01          -6.745900D-02
1.021000D+01          -1.580780D-01
3.838000D+00          -1.218310D-01
7.466000D-01           5.490030D-01
2.248000D-01           5.788150D-01
S   1   1.00
2.248000D-01           1.000000D+00
S   1   1.00
0.0612400              1.0000000
P   4   1.00
1.355000D+01           3.991900D-02
2.917000D+00           2.171690D-01
7.973000D-01           5.103190D-01
2.185000D-01           4.622140D-01
P   1   1.00
2.185000D-01           1.000000D+00
P   1   1.00
0.0561100              1.0000000
D   1   1.00
8.170000D-01           1.0000000
D   1   1.00
0.2300000              1.0000000
****
O     0
S   9   1.00
1.172000D+04           7.100000D-04
1.759000D+03           5.470000D-03
4.008000D+02           2.783700D-02
1.137000D+02           1.048000D-01
3.703000D+01           2.830620D-01
1.327000D+01           4.487190D-01
5.025000D+00           2.709520D-01
1.013000D+00           1.545800D-02
3.023000D-01          -2.585000D-03
S   9   1.00
1.172000D+04          -1.600000D-04
1.759000D+03          -1.263000D-03
4.008000D+02          -6.267000D-03
1.137000D+02          -2.571600D-02
3.703000D+01          -7.092400D-02
1.327000D+01          -1.654110D-01
5.025000D+00          -1.169550D-01
1.013000D+00           5.573680D-01
3.023000D-01           5.727590D-01
S   1   1.00
3.023000D-01           1.000000D+00
S   1   1.00
0.0789600              1.0000000
P   4   1.00
1.770000D+01           4.301800D-02
3.854000D+00           2.289130D-01
1.046000D+00           5.087280D-01
2.753000D-01           4.605310D-01
P   1   1.00
2.753000D-01           1.000000D+00
P   1   1.00
0.0685600              1.0000000
D   1   1.00
1.185000D+00           1.0000000
D   1   1.00
0.3320000              1.0000000
****
Fe     0
S   20   1.00
4.316265D+06           8.048803D-06
6.463424D+05           6.258306D-05
1.470897D+05           3.290239D-04
4.166152D+04           1.387355D-03
1.359077D+04           5.023256D-03
4.905750D+03           1.610140D-02
1.912746D+03           4.590034D-02
7.926043D+02           1.136154D-01
3.448065D+02           2.283869D-01
1.558999D+02           3.221159D-01
7.223091D+01           2.383661D-01
3.272506D+01           7.404667D-02
1.566762D+01           9.214197D-02
7.503483D+00           9.339790D-02
3.312223D+00           1.573965D-02
1.558471D+00          -4.186682D-04
6.839140D-01           5.376318D-05
1.467570D-01          -3.816654D-05
7.058300D-02           4.319603D-05
3.144900D-02          -3.401019D-06
S   20   1.00
4.316265D+06          -4.155954D-06
6.463424D+05          -3.231401D-05
1.470897D+05          -1.699525D-04
4.166152D+04          -7.171369D-04
1.359077D+04          -2.603625D-03
4.905750D+03          -8.399109D-03
1.912746D+03          -2.434109D-02
7.926043D+02          -6.251948D-02
3.448065D+02          -1.365929D-01
1.558999D+02          -2.312707D-01
7.223091D+01          -2.383734D-01
3.272506D+01           3.123837D-02
1.566762D+01           5.086818D-01
7.503483D+00           4.987695D-01
3.312223D+00           9.033552D-02
1.558471D+00          -6.005337D-03
6.839140D-01           2.312454D-04
1.467570D-01          -5.643680D-04
7.058300D-02           4.992260D-04
3.144900D-02          -1.015293D-04
S   20   1.00
4.316265D+06           9.532178D-07
6.463424D+05           7.414605D-06
1.470897D+05           3.898393D-05
4.166152D+04           1.647152D-04
1.359077D+04           5.985980D-04
4.905750D+03           1.942390D-03
1.912746D+03           5.687237D-03
7.926043D+02           1.501329D-02
3.448065D+02           3.452455D-02
1.558999D+02           6.495820D-02
7.223091D+01           7.716194D-02
3.272506D+01          -1.873411D-02
1.566762D+01          -3.009185D-01
7.503483D+00          -4.554661D-01
3.312223D+00           1.286463D-01
1.558471D+00           7.183316D-01
6.839140D-01           4.051743D-01
1.467570D-01           2.168227D-02
7.058300D-02          -8.343566D-03
3.144900D-02           3.658979D-03
S   20   1.00
4.316265D+06          -2.063008D-07
6.463424D+05          -1.604169D-06
1.470897D+05          -8.438437D-06
4.166152D+04          -3.563151D-05
1.359077D+04          -1.295998D-04
4.905750D+03          -4.201534D-04
1.912746D+03          -1.231954D-03
7.926043D+02          -3.248922D-03
3.448065D+02          -7.493717D-03
1.558999D+02          -1.410102D-02
7.223091D+01          -1.691600D-02
3.272506D+01           4.218996D-03
1.566762D+01           6.833810D-02
7.503483D+00           1.098201D-01
3.312223D+00          -4.009005D-02
1.558471D+00          -2.174739D-01
6.839140D-01          -2.465135D-01
1.467570D-01           2.731435D-01
7.058300D-02           5.748321D-01
3.144900D-02           3.012713D-01
S   20   1.00
4.316265D+06          -4.009367D-07
6.463424D+05          -3.189255D-06
1.470897D+05          -1.623079D-05
4.166152D+04          -7.157920D-05
1.359077D+04          -2.463958D-04
4.905750D+03          -8.544907D-04
1.912746D+03          -2.307593D-03
7.926043D+02          -6.728292D-03
3.448065D+02          -1.366165D-02
1.558999D+02          -3.062240D-02
7.223091D+01          -2.631137D-02
3.272506D+01          -9.760183D-03
1.566762D+01           1.801906D-01
7.503483D+00           1.529634D-01
3.312223D+00           5.505413D-02
1.558471D+00          -9.551364D-01
6.839140D-01           2.586813D-01
1.467570D-01           1.834049D+00
7.058300D-02          -9.333240D-01
3.144900D-02          -6.981605D-01
S   1   1.00
3.144900D-02           1.000000D+00
S   1   1.00
1.401000D-02           1.000000D+00
P   16   1.00
1.774569D+04           4.100000D-05
4.200721D+03           3.690000D-04
1.364429D+03           2.129000D-03
5.220806D+02           9.369000D-03
2.214595D+02           3.309700D-02
1.009096D+02           9.443100D-02
4.840115D+01           2.080770D-01
2.398536D+01           3.323330D-01
1.218250D+01           3.329870D-01
6.242298D+00           1.568430D-01
3.110944D+00           2.154900D-02
1.509958D+00          -2.095000D-03
7.108450D-01          -1.739000D-03
2.731900D-01          -3.000000D-04
1.042330D-01           2.900000D-05
3.829100D-02          -1.100000D-05
P   16   1.00
1.774569D+04          -1.500000D-05
4.200721D+03          -1.300000D-04
1.364429D+03          -7.510000D-04
5.220806D+02          -3.329000D-03
2.214595D+02          -1.191200D-02
1.009096D+02          -3.493300D-02
4.840115D+01          -7.998900D-02
2.398536D+01          -1.346360D-01
1.218250D+01          -1.385980D-01
6.242298D+00           3.027800D-02
3.110944D+00           3.332160D-01
1.509958D+00           4.561530D-01
7.108450D-01           2.850510D-01
2.731900D-01           4.614400D-02
1.042330D-01          -3.249000D-03
3.829100D-02           1.357000D-03
P   16   1.00
1.774569D+04           5.000000D-06
4.200721D+03           4.200000D-05
1.364429D+03           2.410000D-04
5.220806D+02           1.085000D-03
2.214595D+02           3.831000D-03
1.009096D+02           1.142300D-02
4.840115D+01           2.579200D-02
2.398536D+01           4.481800D-02
1.218250D+01           4.459800D-02
6.242298D+00          -1.117700D-02
3.110944D+00          -1.381340D-01
1.509958D+00          -1.882850D-01
7.108450D-01          -1.073990D-01
2.731900D-01           4.448630D-01
1.042330D-01           6.402390D-01
3.829100D-02           6.445700D-02
P   16   1.00
1.774569D+04           3.000000D-06
4.200721D+03           2.900000D-05
1.364429D+03           1.650000D-04
5.220806D+02           7.340000D-04
2.214595D+02           2.626000D-03
1.009096D+02           7.725000D-03
4.840115D+01           1.773300D-02
2.398536D+01           3.005500D-02
1.218250D+01           3.109400D-02
6.242298D+00          -1.004800D-02
3.110944D+00          -8.830600D-02
1.509958D+00          -1.298240D-01
7.108450D-01          -7.693700D-02
2.731900D-01           2.126610D-01
1.042330D-01           5.730610D-01
3.829100D-02           3.696510D-01
P   1   1.00
3.829100D-02           1.000000D+00
P   1   1.00
1.407000D-02           1.000000D+00
D   8   1.00
1.133440D+02           3.530000D-03
3.364140D+01           2.578400D-02
1.233100D+01           9.911900D-02
4.994780D+00           2.390730D-01
2.072800D+00           3.571990D-01
8.307530D-01           3.621880D-01
3.091780D-01           2.364610D-01
1.001300D-01           6.011800D-02
D   8   1.00
1.133440D+02          -3.890000D-03
3.364140D+01          -2.844200D-02
1.233100D+01          -1.124290D-01
4.994780D+00          -2.742570D-01
2.072800D+00          -3.155460D-01
8.307530D-01           5.710900D-02
3.091780D-01           5.636040D-01
1.001300D-01           3.846370D-01
D   1   1.00
1.001300D-01           1.000000D+00
D   1   1.00
3.243000D-02           1.000000D+00
F   2   1.00
3.224300D+00           4.222490D-01
7.758000D-01           7.714680D-01
F   1   1.00
2.749000D-01           1.000000D+00
****
$end


--------------------------------------------------------------
 ----------------------------------------------------------------
             Standard Nuclear Orientation (Angstroms)
    I     Atom           X                Y                Z
 ----------------------------------------------------------------
    1      C       2.9547686000    -1.4498062000    -2.0313799000
    2      C       4.1752150000    -1.1245272000    -2.6247880000
    3      C       5.3827751000    -1.7347629000    -2.1973219000
    4      C       5.3313383000    -2.7236219000    -1.2027307000
    5      C       4.1198456000    -3.0624527000    -0.5878544000
    6      C       2.9263396000    -2.4191692000    -0.9579856000
    7      H       4.1651977000    -0.3705496000    -3.4171268000
    8      O       1.7928767000    -0.8960544000    -2.3579510000
    9      C       6.7269564000    -1.2512813000    -2.6058419000
   10      O       7.7687517000    -1.8786074000    -2.3562571000
   11      N       6.7695564000    -0.0188913000    -3.2188867000
   12      H       5.8917862000     0.4905878000    -3.2251899000
   13      C       7.7416425000     1.8104812000    -1.8794762000
   14      H       6.8200659000     2.3943132000    -2.0573063000
   15      H       8.5746885000     2.5339760000    -1.8521036000
   16      C       7.5915534000     1.1020432000    -0.5316699000
   17      H       8.5846538000     0.7411615000    -0.1821491000
   18      H       6.9658548000     0.2052363000    -0.6561900000
   19      N       6.9081563000     1.9355298000     0.4542571000
   20      H       7.4744797000     2.7656390000     0.6485184000
   21      C       5.8751114000     2.0653940000     2.7053993000
   22      H       5.7224019000     1.4630533000     3.6179625000
   23      H       6.4819816000     2.9379525000     3.0055576000
   24      C       6.6718940000     1.2233449000     1.7089777000
   25      H       7.6153002000     0.8853173000     2.1919021000
   26      H       6.1116625000     0.3043449000     1.4627264000
   27      C       4.5225725000     2.5713807000     2.1893617000
   28      H       4.0135457000     3.1121797000     3.0061232000
   29      H       4.6815687000     3.2913680000     1.3695266000
   30      C       3.6029410000     1.4629532000     1.6833584000
   31      H       4.0306830000     0.9857701000     0.7862183000
   32      N       2.2916511000     2.0110892000     1.3594436000
   33      H       2.1425676000     3.0049188000     1.4963035000
   34      C       1.3522373000     1.3291190000     0.6543643000
   35      O       1.6090552000     0.1231685000     0.3367955000
   36      C       0.1148551000     2.0003017000     0.3636855000
   37      H      -0.1144304000     2.9153476000     0.9118127000
   38      C      -2.2116413000     2.1346583000    -0.5182678000
   39      H      -2.7594753000     1.6483912000     0.3066310000
   40      H      -2.1452368000     3.2069072000    -0.2896715000
   41      C      -2.9903376000     1.9756968000    -1.8137928000
   42      O      -2.9061096000     2.8060561000    -2.7273388000
   43      N      -3.7893674000     0.8839258000    -1.8698859000
   44      C      -4.7109266000     0.6095583000    -2.9627667000
   45      H      -3.7647906000     0.2238190000    -1.0968820000
   46      C      -6.1651136000     0.5844463000    -2.4797235000
   47      H      -4.4504349000    -0.3582523000    -3.4202963000
   48      H      -4.5533246000     1.3982406000    -3.7115565000
   49      C      -6.6449116000     1.9227561000    -1.9137494000
   50      H      -6.8098828000     0.2789924000    -3.3231341000
   51      H      -6.2640192000    -0.2048403000    -1.7177192000
   52      C      -7.9574866000     1.8242141000    -1.1158206000
   53      H      -6.7819904000     2.6480598000    -2.7360382000
   54      H      -5.8614468000     2.3429435000    -1.2619565000
   55      H      -8.2717552000     2.8449144000    -0.8302810000
   56      H      -8.7525932000     1.4207153000    -1.7673973000
   57      C      -5.8723968000    -1.7500003000     0.6117931000
   58      C      -4.4779010000    -2.5228140000    -1.2732933000
   59      O      -6.9160253000    -1.8965831000    -0.0605552000
   60      C      -4.5305308000    -1.9938157000     0.0250132000
   61      C      -3.2598132000    -2.6573525000    -1.9472319000
   62      C      -3.3165462000    -1.6398309000     0.6728325000
   63      C      -2.0576190000    -2.2612533000    -1.3367038000
   64      C      -2.0847957000    -1.7920860000     0.0316456000
   65      H      -3.3002338000    -1.2102614000     1.6774572000
   66      O      -0.8836412000    -2.2691805000    -1.9354695000
   67      C      -0.8184120000     1.5085669000    -0.5357545000
   68      O      -0.6362794000     0.5330613000    -1.3560822000
   69      H       4.0922778000    -3.7977309000     0.2216020000
   70      O       1.7584373000    -2.6209748000    -0.3784324000
   71      H      -3.2306083000    -3.0301084000    -2.9748368000
   72      O      -0.9145508000    -1.4829432000     0.5750227000
   73      Fe      0.4502313000    -1.1701606000    -0.8892092000
   74      N      -7.9319963000     1.0047733000     0.1004860000
   75      H      -7.7814227000     0.0256301000    -0.1564250000
   76      N      -5.9322951000    -1.3337896000     1.9077208000
   77      H      -5.0620935000    -1.1624010000     2.3965808000
   78      C      -7.1369255000    -0.7486151000     2.4783031000
   79      H      -7.9830628000    -1.1414788000     1.9007035000
   80      H      -7.2474407000    -1.0962395000     3.5170225000
   81      C      -7.1269708000     0.7879363000     2.4430764000
   82      H      -8.0947150000     1.1423636000     2.8384058000
   83      H      -6.3397102000     1.1586801000     3.1232786000
   84      C      -6.8911564000     1.3902383000     1.0558082000
   85      H      -6.9015350000     2.4901279000     1.1463141000
   86      H      -5.8700084000     1.1196448000     0.7148216000
   87      H      -5.4143782000    -2.7901183000    -1.7624889000
   88      H       6.2659628000    -3.1819183000    -0.8765351000
   89      H       3.4974505000     0.6683152000     2.4446051000
   90      C       7.9378472000     0.8445530000    -3.0589885000
   91      H       8.1027454000     1.4147958000    -3.9862495000
   92      H       8.8057192000     0.1888807000    -2.9074592000
 ----------------------------------------------------------------
 Nuclear Repulsion Energy =        7400.21411286 hartrees
 There are      194 alpha and      189 beta electrons
 Requested basis set is non-standard
 There are 666 shells and 1550 basis functions

 Total QAlloc Memory Limit  30000 MB
 Mega-Array Size       188 MB
 MEM_STATIC part       192 MB

 Using C-PCM dielectric factor f(eps) = (eps-1)/eps = 0.987243
No default van der Waals radius is available for Z = 26
	Found R = 2.4400 A in the $van_der_waals section
 Discretize the solute cavity surface with Lebedev spheres
	Using 110 Lebedev grid points for each H atom
	Using 194 Lebedev grid points for other atoms
	Atomic van der Waals radii (Bondi set) will be scaled by 1.20
 Using smooth SwiG surface discretization
 Remove points where switching function is < 1.0e-08
 Keep 5415 surface tesserae and discard 8821 interior tesserae
 Molecular Surface Area = 669.529 Angst**2

 A cutoff of  1.0D-12 yielded 163745 shell pairs
 There are    833293 function pairs (    942415 Cartesian)
 Smallest overlap matrix eigenvalue = 3.32E-07
 Linear dependence detected in AO basis
 Tighter screening thresholds may be required for diffuse basis sets
 Use S2THRESH > 14 and THRESH = 14 in case of SCF convergence issues
 Number of orthogonalized atomic orbitals = 1545
 Maximum deviation from orthogonality = 1.728E-10

 Scale SEOQF with 1.000000e-02/1.000000e-01/1.000000e-01

 Standard Electronic Orientation quadrupole field applied
 Nucleus-field energy     =    -0.0000000086 hartrees
 ================ Generating on-the-fly SAD Guess ================
 Attempting to make child job directory: /data/scratch/C_FePBstar_enol_ctL_S_2sextet_camb3lyo_augccpVDZ_pcmH2O_tddft10020240229103621//Frg1/
 Attempting to make child job directory: /data/scratch/C_FePBstar_enol_ctL_S_2sextet_camb3lyo_augccpVDZ_pcmH2O_tddft10020240229103621//Frg2/
 Attempting to make child job directory: /data/scratch/C_FePBstar_enol_ctL_S_2sextet_camb3lyo_augccpVDZ_pcmH2O_tddft10020240229103621//Frg3/
 Attempting to make child job directory: /data/scratch/C_FePBstar_enol_ctL_S_2sextet_camb3lyo_augccpVDZ_pcmH2O_tddft10020240229103621//Frg4/
 Attempting to make child job directory: /data/scratch/C_FePBstar_enol_ctL_S_2sextet_camb3lyo_augccpVDZ_pcmH2O_tddft10020240229103621//Frg5/
 Creating input file /data/scratch/C_FePBstar_enol_ctL_S_2sextet_camb3lyo_augccpVDZ_pcmH2O_tddft10020240229103621/Frg1.input
 using default PutDataFrgm: nothing
 calling putenv with: QCSCRATCH=/data/scratch/C_FePBstar_enol_ctL_S_2sextet_camb3lyo_augccpVDZ_pcmH2O_tddft10020240229103621/ 
 Spawning Job For Fragment 0
 Done Job For Fragment 0
 calling putenv with: QCSCRATCH=/data/scratch 
 calling putenv with: QCTHREADS=20 
 Creating input file /data/scratch/C_FePBstar_enol_ctL_S_2sextet_camb3lyo_augccpVDZ_pcmH2O_tddft10020240229103621/Frg2.input
 using default PutDataFrgm: nothing
 calling putenv with: QCSCRATCH=/data/scratch/C_FePBstar_enol_ctL_S_2sextet_camb3lyo_augccpVDZ_pcmH2O_tddft10020240229103621/ 
 Spawning Job For Fragment 1
 Done Job For Fragment 1
 calling putenv with: QCSCRATCH=/data/scratch 
 calling putenv with: QCTHREADS=20 
 Creating input file /data/scratch/C_FePBstar_enol_ctL_S_2sextet_camb3lyo_augccpVDZ_pcmH2O_tddft10020240229103621/Frg3.input
 using default PutDataFrgm: nothing
 calling putenv with: QCSCRATCH=/data/scratch/C_FePBstar_enol_ctL_S_2sextet_camb3lyo_augccpVDZ_pcmH2O_tddft10020240229103621/ 
 Spawning Job For Fragment 2
 Done Job For Fragment 2
 calling putenv with: QCSCRATCH=/data/scratch 
 calling putenv with: QCTHREADS=20 
 Creating input file /data/scratch/C_FePBstar_enol_ctL_S_2sextet_camb3lyo_augccpVDZ_pcmH2O_tddft10020240229103621/Frg4.input
 using default PutDataFrgm: nothing
 calling putenv with: QCSCRATCH=/data/scratch/C_FePBstar_enol_ctL_S_2sextet_camb3lyo_augccpVDZ_pcmH2O_tddft10020240229103621/ 
 Spawning Job For Fragment 3
 Done Job For Fragment 3
 calling putenv with: QCSCRATCH=/data/scratch 
 calling putenv with: QCTHREADS=20 
 Creating input file /data/scratch/C_FePBstar_enol_ctL_S_2sextet_camb3lyo_augccpVDZ_pcmH2O_tddft10020240229103621/Frg5.input
 using default PutDataFrgm: nothing
 calling putenv with: QCSCRATCH=/data/scratch/C_FePBstar_enol_ctL_S_2sextet_camb3lyo_augccpVDZ_pcmH2O_tddft10020240229103621/ 
 Spawning Job For Fragment 4
 Done Job For Fragment 4
 calling putenv with: QCSCRATCH=/data/scratch 
 calling putenv with: QCTHREADS=20 
 Time for running child jobs:  CPU 0.03 s  wall 114.47 s
 ============= Method Specific SAD Guess Constructed =============
 Guess from on-the-fly superposition of atomic densities
 Warning: Energy on first SCF cycle will be non-variational

 -----------------------------------------------------------------------
  General SCF calculation program by
  Eric Jon Sundstrom, Paul Horn, Yuezhi Mao, Dmitri Zuev, Alec White,
  David Stuck, Shaama M.S., Shane Yost, Joonho Lee, David Small,
  Daniel Levine, Susi Lehtola, Hugh Burton, Evgeny Epifanovsky,
  Bang C. Huynh
 -----------------------------------------------------------------------
 Exchange:     0.1900 Hartree-Fock + 0.3500 B88 + 0.4600 muB88 + LR-HF
 Correlation:  0.1900 VWN5 + 0.8100 LYP
 Using SG-1 standard quadrature grid
 using 20 threads for integral computing
 -------------------------------------------------------
 OpenMP Integral computing Module                
 Release: version 1.0, May 2013, Q-Chem Inc. Pittsburgh 
 -------------------------------------------------------
 C-PCM solvent model [f = (eps-1)/eps], solve by matrix inversion
 A unrestricted SCF calculation will be
 performed using DIIS
 SCF converges when DIIS error is below 1.0e-08
 ---------------------------------------
  Cycle       Energy         DIIS error
 ---------------------------------------
    1   -3580.6238068576      9.19e-03  
    2   -3551.2986008330      1.00e-03  
    3   -3550.5147394401      1.62e-03  
    4   -3552.2957129568      5.23e-04  
    5   -3552.4833550846      1.35e-04  
    6   -3552.5000800736      7.96e-05  
    7   -3552.5072201775      1.98e-05  
    8   -3552.5081014822      1.23e-05  
    9   -3552.5083832059      5.39e-06  
   10   -3552.5084503190      2.14e-06  
   11   -3552.5084660720      1.07e-06  
   12   -3552.5084722005      5.54e-07  
   13   -3552.5084741630      3.13e-07  
   14   -3552.5084749338      1.71e-07  
   15   -3552.5084751404      1.07e-07  
   16   -3552.5084752250      6.15e-08  
   17   -3552.5084752519      4.17e-08  
   18   -3552.5084752621      2.62e-08  
   19   -3552.5084752627      1.18e-08  
   20   -3552.5084752628      7.27e-09  Convergence criterion met
 ---------------------------------------
 SCF time:   CPU 525087.73s  wall 30535.00s 
<S^2> =          8.757388365

************** Final PCM Free Energy Summary **************
 G_electrostatic  =      -0.30047478 hartree =    -188.55077045 kcal/mol
 G_cavitation     =       0.00000000 hartree =       0.00000000 kcal/mol
 G_dispersion     =       0.00000000 hartree =       0.00000000 kcal/mol
 G_repulsion      =       0.00000000 hartree =       0.00000000 kcal/mol
 --------------------------------------------------
 Non-electrostatic Free Energy =       0.00000000 hartree =       0.00000000 kcal/mol
 Total                         =      -0.30047478 hartree =    -188.55077045 kcal/mol
 --------------------------------------------------
 SCF Energy (H0 + V/2)                       =   -3552.50847526 
 Solute Internal Energy (H0)                 =   -3552.20800048 
 Total Free Energy (H0 + V/2 + non-elec)     =   -3552.50847526 hartree
                                             = -2229232.71403517 kcal/mol
***********************************************************

 SCF   energy in the final basis set =    -3552.5084752628
 Total energy in the final basis set =    -3552.5084752628
 
 MAX_CIS_SUBSPACE fits in available memory
 Direct TDDFT/TDA calculation will be performed
 Exchange:     0.1900 Hartree-Fock + 0.3500 B88 + 0.4600 muB88 + LR-HF
 Correlation:  0.1900 VWN5 + 0.8100 LYP
 Using SG-1 standard quadrature grid
 Adding PCM contribution to the XC response (LR-PCM)
 CIS energy converged when residual is below 10e- 6
 ---------------------------------------------------
 Iter    Rts Conv    Rts Left    Ttl Dev     Max Dev
 ---------------------------------------------------
   1         0         100      0.004320    0.000213
   2         0         100      0.002630    0.000089
   3         0         100      0.002849    0.000123
   4         0         100      0.003594    0.000130
   5         7          93      0.002835    0.000100
   6        14          86      0.001722    0.000056
   7        19          81      0.000955    0.000050
   8        35          65      0.000393    0.000023
   9        61          39      0.000198    0.000029
  10        79          21      0.000068    0.000014
  11        98           2      0.000030    0.000005
  12        99           1      0.000024    0.000002
  13       100           0      0.000023    0.000001    Roots Converged
 ---------------------------------------------------
 
 ---------------------------------------------------
         TDDFT/TDA Excitation Energies              
 ---------------------------------------------------

 Excited state   1: excitation energy (eV) =    2.1219
 Total energy for state  1:                 -3552.43049848 au
    <S**2>     :  8.8510
    Trans. Mom.: -0.7194 X   0.0021 Y   0.1496 Z
    Strength   :     0.0280673981
    D(  189) --> S(    1) amplitude =  0.8589 beta
    D(  189) --> S(    2) amplitude = -0.2222 beta
    D(  189) --> S(    3) amplitude =  0.3274 beta

 Excited state   2: excitation energy (eV) =    2.1856
 Total energy for state  2:                 -3552.42815483 au
    <S**2>     :  8.8563
    Trans. Mom.:  0.6971 X  -0.0012 Y  -0.1380 Z
    Strength   :     0.0270376556
    D(  188) --> S(    1) amplitude =  0.8289 beta
    D(  188) --> S(    2) amplitude = -0.2312 beta
    D(  188) --> S(    3) amplitude =  0.2582 beta
    D(  189) --> S(    2) amplitude = -0.3295 beta

 Excited state   3: excitation energy (eV) =    2.2510
 Total energy for state  3:                 -3552.42575162 au
    <S**2>     :  8.7957
    Trans. Mom.:  0.8609 X   0.0194 Y  -0.1794 Z
    Strength   :     0.0426697891
    D(  188) --> S(    3) amplitude = -0.3215 beta
    D(  189) --> S(    1) amplitude = -0.3583 beta
    D(  189) --> S(    2) amplitude = -0.2018 beta
    D(  189) --> S(    3) amplitude =  0.8099 beta

 Excited state   4: excitation energy (eV) =    2.2698
 Total energy for state  4:                 -3552.42506275 au
    <S**2>     :  8.7901
    Trans. Mom.:  0.2891 X  -0.0601 Y  -0.0814 Z
    Strength   :     0.0052166400
    D(  188) --> S(    1) amplitude =  0.2153 beta
    D(  188) --> S(    2) amplitude =  0.6269 beta
    D(  188) --> S(    3) amplitude = -0.4942 beta
    D(  189) --> S(    2) amplitude = -0.3964 beta
    D(  189) --> S(    3) amplitude = -0.3195 beta

 Excited state   5: excitation energy (eV) =    2.2908
 Total energy for state  5:                 -3552.42429030 au
    <S**2>     :  8.7963
    Trans. Mom.: -1.2019 X   0.0124 Y   0.2510 Z
    Strength   :     0.0846202919
    D(  188) --> S(    1) amplitude =  0.2181 beta
    D(  188) --> S(    2) amplitude =  0.6698 beta
    D(  188) --> S(    3) amplitude =  0.3956 beta
    D(  189) --> S(    2) amplitude =  0.4892 beta
    D(  189) --> S(    3) amplitude =  0.2381 beta

 Excited state   6: excitation energy (eV) =    2.5644
 Total energy for state  6:                 -3552.41423483 au
    <S**2>     :  8.8880
    Trans. Mom.: -0.1033 X  -0.3658 Y  -0.1044 Z
    Strength   :     0.0097625001
    D(  188) --> S(    1) amplitude = -0.3278 beta
    D(  188) --> S(    2) amplitude =  0.1956 beta
    D(  188) --> S(    3) amplitude =  0.5922 beta
    D(  189) --> S(    1) amplitude = -0.2287 beta
    D(  189) --> S(    2) amplitude = -0.5657 beta

 Excited state   7: excitation energy (eV) =    2.9741
 Total energy for state  7:                 -3552.39917876 au
    <S**2>     : 10.5347
    Trans. Mom.: -0.4052 X  -0.0486 Y   0.1142 Z
    Strength   :     0.0130874641
    S(    4) --> V(    2) amplitude = -0.3687 alpha
    S(    4) --> V(    3) amplitude =  0.3729 alpha
    S(    5) --> V(    2) amplitude =  0.3019 alpha
    S(    5) --> V(    6) amplitude =  0.1711 alpha
    D(  188) --> S(    5) amplitude = -0.3439 beta
    D(  188) --> V(    1) amplitude =  0.2833 beta
    D(  188) --> V(    3) amplitude = -0.1567 beta
    D(  189) --> V(    1) amplitude = -0.1589 beta
    D(  189) --> V(    5) amplitude = -0.1894 beta

 Excited state   8: excitation energy (eV) =    2.9930
 Total energy for state  8:                 -3552.39848497 au
    <S**2>     : 10.4875
    Trans. Mom.: -0.0924 X   0.0665 Y   0.0695 Z
    Strength   :     0.0013049345
    S(    4) --> V(    2) amplitude =  0.3240 alpha
    S(    4) --> V(    6) amplitude =  0.1530 alpha
    S(    5) --> V(    1) amplitude = -0.1519 alpha
    S(    5) --> V(    2) amplitude =  0.1721 alpha
    S(    5) --> V(    3) amplitude =  0.4614 alpha
    S(    5) --> V(    6) amplitude =  0.1668 alpha
    D(  188) --> V(    1) amplitude = -0.2031 beta
    D(  188) --> V(    5) amplitude = -0.1521 beta
    D(  189) --> S(    5) amplitude = -0.2955 beta
    D(  189) --> V(    2) amplitude = -0.2184 beta
    D(  189) --> V(    5) amplitude = -0.2366 beta

 Excited state   9: excitation energy (eV) =    3.2483
 Total energy for state  9:                 -3552.38910331 au
    <S**2>     :  9.7422
    Trans. Mom.:  0.2328 X   0.1163 Y   0.1052 Z
    Strength   :     0.0062706627
    S(    3) --> V(   10) amplitude =  0.3179 alpha
    S(    3) --> V(   12) amplitude = -0.1831 alpha
    D(  187) --> S(    1) amplitude =  0.3935 beta
    D(  187) --> S(    2) amplitude = -0.3620 beta
    D(  187) --> S(    3) amplitude =  0.5564 beta
    D(  187) --> S(    5) amplitude = -0.1540 beta
    D(  187) --> V(    1) amplitude = -0.1559 beta
    D(  187) --> V(    3) amplitude =  0.1626 beta
    D(  187) --> V(   15) amplitude =  0.1848 beta

 Excited state  10: excitation energy (eV) =    3.3964
 Total energy for state 10:                 -3552.38365934 au
    <S**2>     :  8.8368
    Trans. Mom.: -0.1015 X  -0.0871 Y   0.0302 Z
    Strength   :     0.0015640572
    D(  187) --> S(    1) amplitude =  0.2076 beta
    D(  188) --> S(    5) amplitude =  0.2011 beta
    D(  189) --> S(    5) amplitude =  0.5329 beta
    D(  189) --> V(    1) amplitude =  0.2549 beta
    D(  189) --> V(    2) amplitude = -0.2109 beta
    D(  189) --> V(    3) amplitude = -0.4110 beta
    D(  189) --> V(    4) amplitude = -0.2459 beta
    D(  189) --> V(   15) amplitude =  0.2368 beta

 Excited state  11: excitation energy (eV) =    3.4208
 Total energy for state 11:                 -3552.38276479 au
    <S**2>     :  8.8356
    Trans. Mom.:  0.1000 X  -0.0562 Y  -0.0157 Z
    Strength   :     0.0011234820
    D(  187) --> S(    1) amplitude =  0.7188 beta
    D(  187) --> S(    2) amplitude =  0.2265 beta
    D(  187) --> S(    3) amplitude = -0.3049 beta
    D(  188) --> S(    5) amplitude =  0.1778 beta
    D(  188) --> V(    9) amplitude =  0.1877 beta
    D(  189) --> S(    5) amplitude = -0.2104 beta

 Excited state  12: excitation energy (eV) =    3.4385
 Total energy for state 12:                 -3552.38211166 au
    <S**2>     :  8.8584
    Trans. Mom.: -0.2438 X   0.1018 Y   0.1087 Z
    Strength   :     0.0068769301
    D(  187) --> S(    1) amplitude = -0.3934 beta
    D(  188) --> S(    5) amplitude =  0.4309 beta
    D(  188) --> V(    3) amplitude = -0.2014 beta
    D(  188) --> V(    4) amplitude = -0.2324 beta
    D(  188) --> V(    5) amplitude = -0.2324 beta
    D(  188) --> V(    8) amplitude = -0.2291 beta
    D(  188) --> V(    9) amplitude =  0.4231 beta

 Excited state  13: excitation energy (eV) =    3.5134
 Total energy for state 13:                 -3552.37936142 au
    <S**2>     :  8.8072
    Trans. Mom.: -0.1723 X   0.2369 Y   0.0970 Z
    Strength   :     0.0081960236
    D(  187) --> S(    2) amplitude =  0.7445 beta
    D(  187) --> S(    3) amplitude =  0.4845 beta
    D(  188) --> V(    9) amplitude =  0.1655 beta

 Excited state  14: excitation energy (eV) =    3.5312
 Total energy for state 14:                 -3552.37870573 au
    <S**2>     :  9.1612
    Trans. Mom.: -0.1561 X  -0.0508 Y  -0.0085 Z
    Strength   :     0.0023384434
    D(  188) --> S(    5) amplitude =  0.1532 beta
    D(  189) --> V(    1) amplitude = -0.1570 beta
    D(  189) --> V(    3) amplitude =  0.1575 beta
    D(  189) --> V(    5) amplitude = -0.2842 beta
    D(  189) --> V(    6) amplitude = -0.1861 beta
    D(  189) --> V(    8) amplitude = -0.4083 beta
    D(  189) --> V(    9) amplitude =  0.5436 beta

 Excited state  15: excitation energy (eV) =    3.5767
 Total energy for state 15:                 -3552.37703533 au
    <S**2>     :  9.5459
    Trans. Mom.:  0.1363 X  -0.0961 Y  -0.0401 Z
    Strength   :     0.0025765460
    S(    4) --> V(   21) amplitude = -0.2366 alpha
    S(    4) --> V(   24) amplitude = -0.1855 alpha
    D(  187) --> S(    2) amplitude = -0.2162 beta
    D(  188) --> S(    5) amplitude = -0.2671 beta
    D(  188) --> V(    1) amplitude = -0.2598 beta
    D(  188) --> V(    3) amplitude =  0.3420 beta
    D(  188) --> V(    8) amplitude = -0.2812 beta
    D(  188) --> V(    9) amplitude =  0.2640 beta
    D(  188) --> V(   15) amplitude = -0.2302 beta
    D(  188) --> V(   19) amplitude = -0.1620 beta
    D(  188) --> V(   24) amplitude =  0.1649 beta

 Excited state  16: excitation energy (eV) =    3.6850
 Total energy for state 16:                 -3552.37305468 au
    <S**2>     :  9.6957
    Trans. Mom.:  0.4472 X   0.0996 Y   0.0688 Z
    Strength   :     0.0193787615
    S(    3) --> V(   10) amplitude = -0.3928 alpha
    S(    3) --> V(   12) amplitude =  0.2251 alpha
    D(  187) --> S(    2) amplitude = -0.2679 beta
    D(  187) --> S(    3) amplitude =  0.4353 beta
    D(  187) --> S(    5) amplitude =  0.2155 beta
    D(  187) --> V(    3) amplitude = -0.2264 beta
    D(  187) --> V(   15) amplitude = -0.2177 beta

 Excited state  17: excitation energy (eV) =    3.7123
 Total energy for state 17:                 -3552.37205167 au
    <S**2>     : 10.1378
    Trans. Mom.: -0.2588 X   0.0907 Y   0.0464 Z
    Strength   :     0.0070364746
    S(    5) --> V(   22) amplitude = -0.2687 alpha
    S(    5) --> V(   24) amplitude =  0.1639 alpha
    S(    5) --> V(   25) amplitude = -0.1851 alpha
    D(  189) --> V(    8) amplitude = -0.1558 beta
    D(  189) --> V(    9) amplitude =  0.1919 beta
    D(  189) --> V(   22) amplitude = -0.2155 beta
    D(  189) --> V(   24) amplitude = -0.1569 beta
    D(  189) --> V(   25) amplitude = -0.1807 beta

 Excited state  18: excitation energy (eV) =    3.7346
 Total energy for state 18:                 -3552.37123148 au
    <S**2>     :  9.8371
    Trans. Mom.: -0.0434 X  -0.0451 Y  -0.0178 Z
    Strength   :     0.0003880076
    S(    4) --> V(   21) amplitude = -0.2763 alpha
    S(    4) --> V(   24) amplitude = -0.2281 alpha
    D(  188) --> V(    1) amplitude =  0.2050 beta
    D(  188) --> V(    3) amplitude = -0.1794 beta
    D(  188) --> V(    8) amplitude =  0.2101 beta
    D(  188) --> V(    9) amplitude = -0.2616 beta
    D(  188) --> V(   21) amplitude =  0.2692 beta
    D(  188) --> V(   24) amplitude =  0.2581 beta

 Excited state  19: excitation energy (eV) =    3.8365
 Total energy for state 19:                 -3552.36748551 au
    <S**2>     :  9.2420
    Trans. Mom.: -0.8125 X   0.0377 Y   0.1129 Z
    Strength   :     0.0633819629
    D(  185) --> S(    2) amplitude = -0.1931 beta
    D(  186) --> S(    1) amplitude =  0.7605 beta
    D(  186) --> S(    2) amplitude =  0.2641 beta

 Excited state  20: excitation energy (eV) =    3.8973
 Total energy for state 20:                 -3552.36525163 au
    <S**2>     :  9.2896
    Trans. Mom.: -0.5002 X  -0.0528 Y   0.0774 Z
    Strength   :     0.0247255914
    D(  185) --> S(    1) amplitude =  0.5797 beta
    D(  185) --> S(    2) amplitude = -0.1581 beta
    D(  185) --> S(    3) amplitude = -0.1635 beta
    D(  186) --> S(    1) amplitude =  0.1909 beta
    D(  186) --> S(    2) amplitude = -0.4682 beta

 Excited state  21: excitation energy (eV) =    3.9901
 Total energy for state 21:                 -3552.36184332 au
    <S**2>     :  8.8487
    Trans. Mom.: -0.1581 X   0.0660 Y   0.0581 Z
    Strength   :     0.0031986235
    D(  172) --> S(    3) amplitude =  0.1866 beta
    D(  179) --> S(    3) amplitude =  0.2344 beta
    D(  181) --> S(    1) amplitude =  0.1638 beta
    D(  181) --> S(    3) amplitude =  0.2107 beta
    D(  185) --> S(    1) amplitude = -0.1611 beta
    D(  186) --> S(    2) amplitude = -0.4025 beta
    D(  186) --> S(    3) amplitude =  0.5531 beta

 Excited state  22: excitation energy (eV) =    4.0419
 Total energy for state 22:                 -3552.35993915 au
    <S**2>     :  8.7963
    Trans. Mom.:  0.1182 X   0.0831 Y  -0.0599 Z
    Strength   :     0.0024232273
    D(  172) --> S(    1) amplitude =  0.1818 beta
    D(  173) --> S(    1) amplitude = -0.1504 beta
    D(  173) --> S(    2) amplitude = -0.1952 beta
    D(  174) --> S(    1) amplitude =  0.2181 beta
    D(  174) --> S(    2) amplitude =  0.1535 beta
    D(  175) --> S(    1) amplitude = -0.1795 beta
    D(  177) --> S(    1) amplitude = -0.2071 beta
    D(  177) --> S(    2) amplitude = -0.2320 beta
    D(  179) --> S(    2) amplitude = -0.1653 beta
    D(  180) --> S(    1) amplitude =  0.2360 beta
    D(  181) --> S(    1) amplitude = -0.4334 beta
    D(  181) --> S(    2) amplitude = -0.3408 beta
    D(  182) --> S(    1) amplitude = -0.2908 beta
    D(  185) --> S(    2) amplitude =  0.1712 beta

 Excited state  23: excitation energy (eV) =    4.0542
 Total energy for state 23:                 -3552.35948799 au
    <S**2>     :  8.8805
    Trans. Mom.:  0.1529 X  -0.2290 Y  -0.1681 Z
    Strength   :     0.0103382958
    D(  174) --> S(    2) amplitude =  0.2015 beta
    D(  181) --> S(    1) amplitude =  0.1775 beta
    D(  181) --> S(    2) amplitude = -0.3354 beta
    D(  182) --> S(    1) amplitude =  0.1650 beta
    D(  182) --> S(    2) amplitude = -0.1511 beta
    D(  185) --> S(    1) amplitude =  0.3695 beta
    D(  186) --> S(    2) amplitude =  0.4890 beta

 Excited state  24: excitation energy (eV) =    4.0788
 Total energy for state 24:                 -3552.35858247 au
    <S**2>     :  8.8848
    Trans. Mom.: -0.5327 X  -0.1944 Y   0.2208 Z
    Strength   :     0.0370081538
    D(  172) --> S(    3) amplitude =  0.1531 beta
    D(  181) --> S(    1) amplitude = -0.2385 beta
    D(  181) --> S(    2) amplitude =  0.1991 beta
    D(  181) --> S(    3) amplitude = -0.1970 beta
    D(  182) --> S(    3) amplitude = -0.1617 beta
    D(  185) --> S(    1) amplitude =  0.2439 beta
    D(  186) --> S(    3) amplitude =  0.5482 beta

 Excited state  25: excitation energy (eV) =    4.1073
 Total energy for state 25:                 -3552.35753574 au
    <S**2>     :  8.8696
    Trans. Mom.:  0.3529 X  -0.1288 Y  -0.3239 Z
    Strength   :     0.0247569082
    D(  172) --> S(    2) amplitude =  0.1545 beta
    D(  174) --> S(    2) amplitude = -0.1564 beta
    D(  174) --> S(    3) amplitude = -0.2157 beta
    D(  179) --> S(    2) amplitude =  0.2341 beta
    D(  179) --> S(    3) amplitude =  0.1933 beta
    D(  181) --> S(    2) amplitude =  0.2964 beta
    D(  181) --> S(    3) amplitude =  0.2789 beta
    D(  185) --> S(    1) amplitude =  0.2100 beta
    D(  185) --> S(    2) amplitude =  0.3636 beta
    D(  185) --> S(    3) amplitude =  0.2072 beta
    D(  188) --> V(    1) amplitude =  0.1739 beta

 Excited state  26: excitation energy (eV) =    4.1260
 Total energy for state 26:                 -3552.35684741 au
    <S**2>     :  8.8213
    Trans. Mom.:  0.0132 X   0.0521 Y  -0.0334 Z
    Strength   :     0.0004046007
    D(  174) --> S(    3) amplitude =  0.2548 beta
    D(  179) --> S(    3) amplitude = -0.2788 beta
    D(  181) --> S(    3) amplitude = -0.3504 beta
    D(  185) --> S(    2) amplitude =  0.6054 beta
    D(  185) --> S(    3) amplitude = -0.1866 beta
    D(  186) --> S(    1) amplitude =  0.1766 beta

 Excited state  27: excitation energy (eV) =    4.1490
 Total energy for state 27:                 -3552.35600105 au
    <S**2>     :  8.8365
    Trans. Mom.:  0.3464 X   0.1159 Y  -0.1659 Z
    Strength   :     0.0163629419
    D(  174) --> S(    3) amplitude =  0.1801 beta
    D(  179) --> S(    3) amplitude = -0.3109 beta
    D(  181) --> S(    3) amplitude = -0.2086 beta
    D(  185) --> S(    2) amplitude = -0.1880 beta
    D(  185) --> S(    3) amplitude =  0.6959 beta

 Excited state  28: excitation energy (eV) =    4.1588
 Total energy for state 28:                 -3552.35564273 au
    <S**2>     :  8.9587
    Trans. Mom.:  0.7798 X   0.0292 Y  -0.3778 Z
    Strength   :     0.0765799753
    D(  174) --> S(    1) amplitude =  0.2007 beta
    D(  175) --> S(    1) amplitude =  0.1860 beta
    D(  176) --> S(    1) amplitude =  0.1898 beta
    D(  179) --> S(    1) amplitude = -0.4806 beta
    D(  180) --> S(    1) amplitude = -0.2890 beta
    D(  181) --> S(    1) amplitude = -0.1978 beta
    D(  182) --> S(    1) amplitude =  0.3012 beta
    D(  185) --> S(    3) amplitude = -0.2292 beta
    D(  186) --> S(    3) amplitude =  0.2369 beta

 Excited state  29: excitation energy (eV) =    4.1823
 Total energy for state 29:                 -3552.35477949 au
    <S**2>     :  8.9007
    Trans. Mom.: -1.9297 X  -0.1906 Y   0.7849 Z
    Strength   :     0.4483743760
    S(    4) --> V(    2) amplitude = -0.1847 alpha
    S(    4) --> V(    3) amplitude =  0.1944 alpha
    S(    5) --> V(    2) amplitude =  0.1827 alpha
    D(  172) --> S(    1) amplitude =  0.1867 beta
    D(  179) --> S(    1) amplitude = -0.2661 beta
    D(  180) --> S(    1) amplitude = -0.1931 beta
    D(  182) --> S(    1) amplitude =  0.2287 beta
    D(  185) --> S(    2) amplitude =  0.3105 beta
    D(  185) --> S(    3) amplitude =  0.2335 beta
    D(  188) --> S(    5) amplitude =  0.1895 beta
    D(  188) --> V(    1) amplitude = -0.2007 beta
    D(  188) --> V(    9) amplitude = -0.1749 beta

 Excited state  30: excitation energy (eV) =    4.2366
 Total energy for state 30:                 -3552.35278433 au
    <S**2>     :  9.1015
    Trans. Mom.: -0.2418 X   0.0401 Y   0.2325 Z
    Strength   :     0.0118495734
    S(    2) --> V(    3) amplitude =  0.1517 alpha
    D(  172) --> S(    1) amplitude =  0.1968 beta
    D(  175) --> S(    2) amplitude = -0.1820 beta
    D(  179) --> S(    2) amplitude =  0.2543 beta
    D(  179) --> S(    3) amplitude = -0.2919 beta
    D(  180) --> S(    2) amplitude =  0.2871 beta
    D(  180) --> S(    3) amplitude = -0.3006 beta
    D(  182) --> S(    2) amplitude = -0.2960 beta
    D(  182) --> S(    3) amplitude =  0.3222 beta

 Excited state  31: excitation energy (eV) =    4.2525
 Total energy for state 31:                 -3552.35219988 au
    <S**2>     :  8.8538
    Trans. Mom.: -0.1732 X  -0.2800 Y   0.2318 Z
    Strength   :     0.0168934490
    S(    4) --> V(    2) amplitude =  0.2543 alpha
    S(    5) --> V(    3) amplitude =  0.3179 alpha
    D(  172) --> S(    1) amplitude = -0.1727 beta
    D(  179) --> S(    2) amplitude = -0.1560 beta
    D(  180) --> S(    3) amplitude = -0.1866 beta
    D(  182) --> S(    3) amplitude =  0.2071 beta
    D(  186) --> S(    2) amplitude = -0.1735 beta
    D(  188) --> V(    1) amplitude =  0.1869 beta
    D(  188) --> V(    9) amplitude =  0.1580 beta
    D(  189) --> S(    5) amplitude =  0.1721 beta
    D(  189) --> V(    2) amplitude =  0.2106 beta
    D(  189) --> V(    3) amplitude =  0.1732 beta
    D(  189) --> V(    5) amplitude =  0.1786 beta

 Excited state  32: excitation energy (eV) =    4.2856
 Total energy for state 32:                 -3552.35098275 au
    <S**2>     :  9.0510
    Trans. Mom.:  0.6578 X   0.0946 Y  -0.3727 Z
    Strength   :     0.0609574244
    D(  172) --> S(    1) amplitude =  0.3121 beta
    D(  172) --> S(    3) amplitude = -0.1806 beta
    D(  173) --> S(    1) amplitude =  0.2457 beta
    D(  177) --> S(    1) amplitude =  0.2262 beta
    D(  177) --> S(    2) amplitude =  0.1605 beta
    D(  179) --> S(    2) amplitude = -0.2724 beta
    D(  180) --> S(    2) amplitude = -0.2736 beta
    D(  182) --> S(    2) amplitude =  0.2932 beta
    D(  186) --> S(    2) amplitude =  0.1794 beta

 Excited state  33: excitation energy (eV) =    4.3163
 Total energy for state 33:                 -3552.34985527 au
    <S**2>     :  9.2496
    Trans. Mom.: -0.2747 X   0.3148 Y   0.3116 Z
    Strength   :     0.0287254667
    S(    1) --> V(    2) amplitude =  0.2970 alpha
    S(    1) --> V(    3) amplitude = -0.2051 alpha
    S(    4) --> V(    2) amplitude = -0.2321 alpha
    D(  172) --> S(    1) amplitude = -0.1880 beta
    D(  179) --> S(    3) amplitude = -0.1714 beta
    D(  180) --> S(    3) amplitude = -0.2536 beta
    D(  182) --> S(    3) amplitude =  0.2815 beta
    D(  186) --> S(    2) amplitude =  0.1988 beta
    D(  186) --> S(    3) amplitude =  0.1650 beta
    D(  188) --> V(    1) amplitude = -0.1501 beta

 Excited state  34: excitation energy (eV) =    4.3232
 Total energy for state 34:                 -3552.34959969 au
    <S**2>     :  9.6140
    Trans. Mom.:  0.0584 X   0.0847 Y  -0.1080 Z
    Strength   :     0.0023564229
    S(    2) --> V(    2) amplitude =  0.2101 alpha
    S(    2) --> V(    3) amplitude =  0.3172 alpha
    S(    2) --> V(    6) amplitude =  0.1554 alpha
    D(  171) --> S(    1) amplitude =  0.2412 beta
    D(  173) --> S(    1) amplitude = -0.1815 beta
    D(  180) --> S(    1) amplitude = -0.1620 beta
    D(  185) --> S(    1) amplitude = -0.2833 beta
    D(  186) --> S(    1) amplitude =  0.1870 beta

 Excited state  35: excitation energy (eV) =    4.3507
 Total energy for state 35:                 -3552.34859059 au
    <S**2>     :  8.9451
    Trans. Mom.:  0.0060 X  -0.0520 Y  -0.0054 Z
    Strength   :     0.0002952148
    D(  173) --> S(    1) amplitude =  0.4630 beta
    D(  174) --> S(    1) amplitude =  0.2297 beta
    D(  177) --> S(    1) amplitude =  0.4738 beta
    D(  179) --> S(    1) amplitude = -0.1684 beta
    D(  180) --> S(    1) amplitude =  0.1601 beta
    D(  180) --> S(    2) amplitude =  0.1679 beta
    D(  182) --> S(    2) amplitude = -0.2233 beta
    D(  182) --> S(    3) amplitude = -0.1506 beta

 Excited state  36: excitation energy (eV) =    4.4030
 Total energy for state 36:                 -3552.34666782 au
    <S**2>     :  9.0950
    Trans. Mom.:  0.4075 X  -0.0987 Y  -0.2129 Z
    Strength   :     0.0238565478
    S(    1) --> V(    2) amplitude =  0.1885 alpha
    D(  163) --> S(    1) amplitude =  0.1724 beta
    D(  171) --> S(    1) amplitude =  0.2438 beta
    D(  172) --> S(    1) amplitude =  0.5902 beta
    D(  186) --> S(    1) amplitude = -0.2654 beta

 Excited state  37: excitation energy (eV) =    4.4736
 Total energy for state 37:                 -3552.34407477 au
    <S**2>     :  8.8162
    Trans. Mom.:  0.0805 X   0.1043 Y   0.2145 Z
    Strength   :     0.0069436435
    D(  172) --> S(    2) amplitude =  0.2769 beta
    D(  173) --> S(    2) amplitude =  0.4380 beta
    D(  174) --> S(    2) amplitude =  0.3204 beta
    D(  175) --> S(    2) amplitude = -0.1776 beta
    D(  177) --> S(    2) amplitude =  0.4813 beta
    D(  179) --> S(    2) amplitude = -0.2680 beta
    D(  180) --> S(    2) amplitude =  0.2468 beta

 Excited state  38: excitation energy (eV) =    4.4904
 Total energy for state 38:                 -3552.34345663 au
    <S**2>     :  8.8114
    Trans. Mom.:  0.2189 X   0.0315 Y  -0.1722 Z
    Strength   :     0.0086418957
    D(  171) --> S(    3) amplitude =  0.2442 beta
    D(  172) --> S(    2) amplitude = -0.2515 beta
    D(  172) --> S(    3) amplitude =  0.6210 beta
    D(  173) --> S(    3) amplitude =  0.2097 beta
    D(  175) --> S(    3) amplitude = -0.1847 beta
    D(  177) --> S(    3) amplitude =  0.2672 beta
    D(  186) --> S(    3) amplitude = -0.1682 beta

 Excited state  39: excitation energy (eV) =    4.5156
 Total energy for state 39:                 -3552.34252851 au
    <S**2>     :  8.8652
    Trans. Mom.:  0.2150 X   0.1876 Y   0.0636 Z
    Strength   :     0.0094537459
    D(  170) --> S(    2) amplitude = -0.1509 beta
    D(  172) --> S(    2) amplitude = -0.4394 beta
    D(  173) --> S(    3) amplitude = -0.2807 beta
    D(  177) --> S(    3) amplitude = -0.3365 beta
    D(  187) --> S(    5) amplitude = -0.2130 beta

 Excited state  40: excitation energy (eV) =    4.5266
 Total energy for state 40:                 -3552.34212419 au
    <S**2>     :  9.6948
    Trans. Mom.:  0.0989 X  -0.0637 Y  -0.0620 Z
    Strength   :     0.0019601358
    S(    5) --> V(    1) amplitude =  0.3861 alpha
    S(    5) --> V(    2) amplitude =  0.2113 alpha
    S(    5) --> V(    3) amplitude =  0.1743 alpha
    S(    5) --> V(    4) amplitude =  0.3666 alpha
    S(    5) --> V(    6) amplitude = -0.2486 alpha
    S(    5) --> V(    7) amplitude = -0.1587 alpha
    S(    5) --> V(   12) amplitude =  0.1529 alpha
    D(  171) --> S(    3) amplitude = -0.1605 beta
    D(  172) --> S(    2) amplitude = -0.2262 beta
    D(  173) --> S(    3) amplitude =  0.1515 beta

 Excited state  41: excitation energy (eV) =    4.5331
 Total energy for state 41:                 -3552.34188867 au
    <S**2>     :  9.2283
    Trans. Mom.:  0.0471 X   0.2512 Y   0.0629 Z
    Strength   :     0.0076901725
    S(    5) --> V(    1) amplitude =  0.2388 alpha
    S(    5) --> V(    4) amplitude =  0.1753 alpha
    D(  171) --> S(    1) amplitude =  0.1925 beta
    D(  171) --> S(    2) amplitude = -0.2322 beta
    D(  171) --> S(    3) amplitude =  0.2645 beta
    D(  172) --> S(    2) amplitude =  0.1714 beta
    D(  172) --> S(    3) amplitude =  0.1909 beta
    D(  173) --> S(    3) amplitude = -0.3533 beta
    D(  177) --> S(    3) amplitude = -0.2887 beta

 Excited state  42: excitation energy (eV) =    4.5774
 Total energy for state 42:                 -3552.34026041 au
    <S**2>     :  9.0904
    Trans. Mom.:  0.0569 X   0.0377 Y   0.1812 Z
    Strength   :     0.0042046080
    D(  171) --> S(    1) amplitude = -0.2383 beta
    D(  171) --> S(    2) amplitude =  0.2061 beta
    D(  171) --> S(    3) amplitude = -0.2014 beta
    D(  172) --> S(    2) amplitude =  0.3468 beta
    D(  187) --> S(    5) amplitude = -0.1526 beta
    D(  189) --> S(    4) amplitude =  0.3638 beta
    D(  189) --> V(    1) amplitude = -0.2504 beta
    D(  189) --> V(    3) amplitude = -0.2811 beta
    D(  189) --> V(   10) amplitude = -0.1673 beta

 Excited state  43: excitation energy (eV) =    4.5848
 Total energy for state 43:                 -3552.33998652 au
    <S**2>     :  9.0616
    Trans. Mom.: -0.2127 X  -0.2031 Y  -0.1156 Z
    Strength   :     0.0112197736
    D(  171) --> S(    1) amplitude =  0.1847 beta
    D(  171) --> S(    2) amplitude = -0.1597 beta
    D(  171) --> S(    3) amplitude =  0.1572 beta
    D(  172) --> S(    2) amplitude = -0.3320 beta
    D(  172) --> S(    3) amplitude = -0.2844 beta
    D(  187) --> S(    5) amplitude =  0.1971 beta
    D(  189) --> S(    4) amplitude =  0.3407 beta
    D(  189) --> V(    1) amplitude = -0.2259 beta
    D(  189) --> V(    3) amplitude = -0.2862 beta
    D(  189) --> V(   10) amplitude = -0.1603 beta

 Excited state  44: excitation energy (eV) =    4.5892
 Total energy for state 44:                 -3552.33982576 au
    <S**2>     : 10.1520
    Trans. Mom.: -0.1226 X   0.0293 Y   0.0213 Z
    Strength   :     0.0018361877
    S(    4) --> V(    1) amplitude =  0.4947 alpha
    S(    4) --> V(    2) amplitude =  0.2857 alpha
    S(    4) --> V(    3) amplitude =  0.1724 alpha
    S(    4) --> V(    4) amplitude = -0.1818 alpha
    S(    4) --> V(    5) amplitude = -0.1725 alpha
    S(    4) --> V(    6) amplitude = -0.2362 alpha
    S(    4) --> V(    7) amplitude = -0.2106 alpha
    S(    4) --> V(    9) amplitude = -0.2402 alpha
    S(    4) --> V(   10) amplitude = -0.2374 alpha
    D(  188) --> S(    4) amplitude =  0.1628 beta

 Excited state  45: excitation energy (eV) =    4.6048
 Total energy for state 45:                 -3552.33925046 au
    <S**2>     :  8.8657
    Trans. Mom.:  0.4386 X   0.1465 Y   0.2633 Z
    Strength   :     0.0319419303
    S(    3) --> V(   10) amplitude = -0.1973 alpha
    D(  171) --> S(    2) amplitude = -0.2932 beta
    D(  172) --> S(    3) amplitude = -0.2345 beta
    D(  173) --> S(    3) amplitude =  0.2249 beta
    D(  177) --> S(    3) amplitude =  0.2505 beta
    D(  187) --> S(    5) amplitude = -0.4196 beta
    D(  187) --> V(    3) amplitude =  0.2391 beta
    D(  187) --> V(    4) amplitude =  0.1886 beta
    D(  187) --> V(    9) amplitude = -0.1796 beta

 Excited state  46: excitation energy (eV) =    4.6161
 Total energy for state 46:                 -3552.33883839 au
    <S**2>     :  8.9399
    Trans. Mom.: -0.1546 X  -0.0437 Y  -0.2147 Z
    Strength   :     0.0081297350
    D(  170) --> S(    1) amplitude =  0.1541 beta
    D(  170) --> S(    2) amplitude =  0.2148 beta
    D(  171) --> S(    1) amplitude = -0.2129 beta
    D(  171) --> S(    2) amplitude = -0.4596 beta
    D(  171) --> S(    3) amplitude = -0.2457 beta
    D(  172) --> S(    1) amplitude =  0.2503 beta
    D(  172) --> S(    3) amplitude =  0.2271 beta
    D(  173) --> S(    2) amplitude =  0.2244 beta
    D(  187) --> S(    5) amplitude =  0.1561 beta

 Excited state  47: excitation energy (eV) =    4.6432
 Total energy for state 47:                 -3552.33783896 au
    <S**2>     :  9.2113
    Trans. Mom.:  0.1712 X  -0.0488 Y  -0.0857 Z
    Strength   :     0.0044403729
    D(  188) --> S(    4) amplitude =  0.5447 beta
    D(  188) --> V(    2) amplitude = -0.3695 beta
    D(  188) --> V(    4) amplitude =  0.1599 beta
    D(  188) --> V(    6) amplitude =  0.2320 beta
    D(  188) --> V(    8) amplitude =  0.1909 beta
    D(  188) --> V(    9) amplitude =  0.1607 beta
    D(  188) --> V(   10) amplitude =  0.1964 beta
    D(  188) --> V(   12) amplitude = -0.1550 beta

 Excited state  48: excitation energy (eV) =    4.6731
 Total energy for state 48:                 -3552.33674029 au
    <S**2>     :  8.8341
    Trans. Mom.:  0.0028 X  -0.1958 Y  -0.0342 Z
    Strength   :     0.0045244802
    D(  168) --> S(    1) amplitude =  0.1669 beta
    D(  170) --> S(    1) amplitude =  0.2330 beta
    D(  170) --> S(    3) amplitude = -0.1889 beta
    D(  171) --> S(    1) amplitude = -0.5055 beta
    D(  171) --> S(    3) amplitude =  0.3986 beta
    D(  177) --> S(    1) amplitude = -0.1838 beta

 Excited state  49: excitation energy (eV) =    4.7682
 Total energy for state 49:                 -3552.33324756 au
    <S**2>     : 10.0542
    Trans. Mom.:  0.1713 X  -0.1799 Y  -0.3089 Z
    Strength   :     0.0183527847
    S(    2) --> V(   22) amplitude = -0.2209 alpha
    S(    2) --> V(   25) amplitude = -0.1560 alpha
    D(  185) --> V(    1) amplitude = -0.1515 beta

 Excited state  50: excitation energy (eV) =    4.7777
 Total energy for state 50:                 -3552.33289849 au
    <S**2>     : 10.2021
    Trans. Mom.:  0.2310 X   0.1829 Y  -0.2354 Z
    Strength   :     0.0166495877
    S(    1) --> V(   21) amplitude = -0.2804 alpha
    S(    1) --> V(   24) amplitude = -0.2187 alpha
    D(  185) --> V(   21) amplitude = -0.1928 beta
    D(  185) --> V(   24) amplitude = -0.1787 beta
    D(  186) --> V(   24) amplitude = -0.1692 beta

 Excited state  51: excitation energy (eV) =    4.7823
 Total energy for state 51:                 -3552.33273042 au
    <S**2>     :  9.3368
    Trans. Mom.: -0.2752 X   0.1289 Y   0.4875 Z
    Strength   :     0.0386636822
    S(    2) --> V(   22) amplitude = -0.1707 alpha
    S(    4) --> V(   21) amplitude =  0.2108 alpha
    D(  171) --> S(    2) amplitude = -0.2348 beta
    D(  185) --> S(    5) amplitude = -0.1632 beta
    D(  188) --> V(   21) amplitude =  0.1948 beta
    D(  188) --> V(   24) amplitude =  0.1838 beta

 Excited state  52: excitation energy (eV) =    4.7951
 Total energy for state 52:                 -3552.33225856 au
    <S**2>     :  9.0040
    Trans. Mom.: -0.2938 X  -0.6223 Y   0.2150 Z
    Strength   :     0.0610603323
    S(    2) --> V(    3) amplitude =  0.1725 alpha
    S(    5) --> V(   22) amplitude =  0.2025 alpha
    D(  171) --> S(    3) amplitude = -0.3149 beta
    D(  189) --> V(   22) amplitude = -0.1929 beta

 Excited state  53: excitation energy (eV) =    4.8345
 Total energy for state 53:                 -3552.33081148 au
    <S**2>     : 10.5406
    Trans. Mom.:  0.0127 X   0.1064 Y  -0.0840 Z
    Strength   :     0.0021970270
    D(  184) --> V(    2) amplitude = -0.2050 alpha
    D(  184) --> V(    3) amplitude = -0.3172 alpha
    D(  184) --> V(    6) amplitude = -0.1749 alpha
    D(  181) --> V(    2) amplitude =  0.1703 beta
    D(  181) --> V(    5) amplitude =  0.2043 beta

 Excited state  54: excitation energy (eV) =    4.8351
 Total energy for state 54:                 -3552.33078848 au
    <S**2>     :  9.8121
    Trans. Mom.: -0.0448 X   0.0679 Y   0.1662 Z
    Strength   :     0.0040565458
    D(  187) --> V(   10) amplitude =  0.1897 alpha
    S(    4) --> V(    5) amplitude =  0.2082 alpha
    S(    4) --> V(    6) amplitude = -0.1593 alpha
    S(    4) --> V(   10) amplitude =  0.5759 alpha
    S(    4) --> V(   12) amplitude = -0.3112 alpha
    S(    4) --> V(   13) amplitude = -0.1875 alpha
    S(    4) --> V(   14) amplitude =  0.1622 alpha

 Excited state  55: excitation energy (eV) =    4.8570
 Total energy for state 55:                 -3552.32998451 au
    <S**2>     : 10.6062
    Trans. Mom.: -0.0282 X  -0.0265 Y   0.0193 Z
    Strength   :     0.0002226775
    D(  183) --> V(    2) amplitude = -0.3177 alpha
    D(  183) --> V(    3) amplitude =  0.2161 alpha
    D(  189) --> V(    2) amplitude =  0.1516 alpha
    S(    1) --> V(   21) amplitude =  0.1640 alpha
    D(  178) --> S(    1) amplitude = -0.1510 beta
    D(  178) --> S(    5) amplitude =  0.2036 beta
    D(  178) --> V(    1) amplitude = -0.2185 beta
    D(  178) --> V(    9) amplitude = -0.1588 beta

 Excited state  56: excitation energy (eV) =    4.8798
 Total energy for state 56:                 -3552.32914566 au
    <S**2>     :  8.8786
    Trans. Mom.:  0.2575 X   0.1481 Y   0.6925 Z
    Strength   :     0.0678725138
    S(    3) --> V(   10) amplitude = -0.2081 alpha
    D(  187) --> V(    1) amplitude = -0.2253 beta
    D(  187) --> V(    3) amplitude =  0.2052 beta
    D(  187) --> V(    5) amplitude = -0.2613 beta
    D(  187) --> V(    6) amplitude = -0.1831 beta
    D(  187) --> V(    8) amplitude = -0.4106 beta
    D(  187) --> V(    9) amplitude =  0.5084 beta

 Excited state  57: excitation energy (eV) =    4.9388
 Total energy for state 57:                 -3552.32697937 au
    <S**2>     :  9.8835
    Trans. Mom.:  0.0660 X   0.0322 Y  -0.0130 Z
    Strength   :     0.0006733916
    S(    4) --> V(    5) amplitude =  0.1823 alpha
    S(    5) --> V(    2) amplitude = -0.2109 alpha
    S(    5) --> V(    3) amplitude =  0.1797 alpha
    S(    5) --> V(    5) amplitude =  0.6681 alpha
    S(    5) --> V(    6) amplitude =  0.1866 alpha
    S(    5) --> V(    9) amplitude = -0.2095 alpha
    S(    5) --> V(   10) amplitude =  0.2053 alpha
    S(    5) --> V(   18) amplitude =  0.1671 alpha

 Excited state  58: excitation energy (eV) =    4.9637
 Total energy for state 58:                 -3552.32606443 au
    <S**2>     :  9.5736
    Trans. Mom.: -0.0078 X   0.0911 Y  -0.0507 Z
    Strength   :     0.0013292672
    D(  188) --> S(    5) amplitude = -0.2225 beta
    D(  188) --> V(    1) amplitude = -0.3551 beta
    D(  188) --> V(    4) amplitude = -0.2615 beta
    D(  188) --> V(    5) amplitude =  0.2171 beta
    D(  188) --> V(   11) amplitude = -0.1710 beta
    D(  188) --> V(   15) amplitude =  0.5159 beta
    D(  188) --> V(   17) amplitude =  0.2591 beta
    D(  188) --> V(   19) amplitude =  0.1614 beta

 Excited state  59: excitation energy (eV) =    4.9788
 Total energy for state 59:                 -3552.32550948 au
    <S**2>     :  9.5802
    Trans. Mom.:  0.0458 X   0.0552 Y   0.0409 Z
    Strength   :     0.0008314338
    D(  189) --> S(    5) amplitude =  0.3329 beta
    D(  189) --> V(    3) amplitude = -0.1603 beta
    D(  189) --> V(    4) amplitude =  0.6161 beta
    D(  189) --> V(    5) amplitude =  0.1767 beta
    D(  189) --> V(    8) amplitude = -0.1705 beta
    D(  189) --> V(   12) amplitude = -0.1671 beta
    D(  189) --> V(   19) amplitude = -0.2218 beta

 Excited state  60: excitation energy (eV) =    4.9948
 Total energy for state 60:                 -3552.32492051 au
    <S**2>     :  9.9978
    Trans. Mom.:  0.0456 X  -0.0254 Y  -0.0381 Z
    Strength   :     0.0005113401
    S(    4) --> V(    1) amplitude =  0.1961 alpha
    S(    4) --> V(    2) amplitude = -0.2086 alpha
    S(    4) --> V(    3) amplitude = -0.1770 alpha
    S(    4) --> V(    4) amplitude = -0.2756 alpha
    S(    4) --> V(    5) amplitude = -0.3221 alpha
    S(    4) --> V(    6) amplitude =  0.3514 alpha
    S(    4) --> V(    8) amplitude =  0.1872 alpha
    S(    4) --> V(   11) amplitude =  0.2154 alpha
    S(    4) --> V(   18) amplitude =  0.1632 alpha
    D(  189) --> V(    4) amplitude = -0.1599 beta

 Excited state  61: excitation energy (eV) =    5.0297
 Total energy for state 61:                 -3552.32363750 au
    <S**2>     : 10.6102
    Trans. Mom.: -0.0492 X  -0.0470 Y  -0.0553 Z
    Strength   :     0.0009470512
    D(  179) --> V(    2) amplitude = -0.2097 alpha
    D(  180) --> V(    2) amplitude = -0.2047 alpha
    D(  180) --> V(    3) amplitude =  0.1512 alpha
    D(  182) --> V(    2) amplitude =  0.2117 alpha
    D(  174) --> S(    1) amplitude =  0.1735 beta
    D(  174) --> S(    5) amplitude = -0.1793 beta
    D(  174) --> V(    1) amplitude =  0.2016 beta
    D(  174) --> V(    9) amplitude =  0.1570 beta
    D(  179) --> S(    5) amplitude = -0.1537 beta

 Excited state  62: excitation energy (eV) =    5.0325
 Total energy for state 62:                 -3552.32353447 au
    <S**2>     :  9.2472
    Trans. Mom.:  0.0759 X   0.0846 Y   0.1335 Z
    Strength   :     0.0037890307
    S(    4) --> V(   10) amplitude = -0.1587 alpha
    D(  176) --> S(    1) amplitude = -0.2005 beta
    D(  176) --> S(    2) amplitude =  0.2482 beta
    D(  176) --> S(    3) amplitude = -0.2413 beta
    D(  188) --> S(    4) amplitude =  0.1502 beta
    D(  188) --> V(    1) amplitude =  0.2356 beta
    D(  188) --> V(    3) amplitude =  0.1793 beta
    D(  188) --> V(    4) amplitude =  0.2119 beta
    D(  188) --> V(   19) amplitude =  0.1520 beta

 Excited state  63: excitation energy (eV) =    5.0598
 Total energy for state 63:                 -3552.32253271 au
    <S**2>     :  9.9274
    Trans. Mom.:  0.2756 X   0.0136 Y   0.0652 Z
    Strength   :     0.0099688878
    S(    5) --> V(    8) amplitude = -0.1672 alpha
    S(    5) --> V(   10) amplitude =  0.5581 alpha
    S(    5) --> V(   12) amplitude = -0.3526 alpha
    S(    5) --> V(   13) amplitude = -0.1678 alpha
    D(  188) --> S(    4) amplitude = -0.1506 beta
    D(  188) --> V(    3) amplitude = -0.1904 beta
    D(  188) --> V(   15) amplitude = -0.1993 beta
    D(  188) --> V(   19) amplitude = -0.1849 beta

 Excited state  64: excitation energy (eV) =    5.0622
 Total energy for state 64:                 -3552.32244259 au
    <S**2>     : 10.0322
    Trans. Mom.: -0.1689 X  -0.0077 Y  -0.0070 Z
    Strength   :     0.0035497216
    D(  187) --> V(   10) amplitude = -0.1528 alpha
    S(    4) --> V(   10) amplitude =  0.2463 alpha
    S(    5) --> V(   10) amplitude =  0.3519 alpha
    S(    5) --> V(   12) amplitude = -0.2305 alpha
    D(  176) --> S(    2) amplitude = -0.1715 beta
    D(  188) --> S(    4) amplitude =  0.1617 beta
    D(  188) --> V(    3) amplitude =  0.2071 beta
    D(  188) --> V(   15) amplitude =  0.2122 beta
    D(  188) --> V(   19) amplitude =  0.1866 beta

 Excited state  65: excitation energy (eV) =    5.0755
 Total energy for state 65:                 -3552.32195311 au
    <S**2>     : 10.6395
    Trans. Mom.:  0.1414 X   0.0008 Y   0.0340 Z
    Strength   :     0.0026312673
    D(  178) --> V(    3) amplitude = -0.1708 alpha
    D(  180) --> V(    2) amplitude = -0.1738 alpha
    D(  180) --> V(    3) amplitude = -0.2771 alpha
    D(  173) --> V(    5) amplitude =  0.1597 beta
    D(  177) --> S(    5) amplitude = -0.1610 beta
    D(  177) --> V(    2) amplitude = -0.1692 beta
    D(  177) --> V(    5) amplitude = -0.1989 beta

 Excited state  66: excitation energy (eV) =    5.1001
 Total energy for state 66:                 -3552.32104964 au
    <S**2>     :  9.4998
    Trans. Mom.:  0.6283 X   0.3702 Y   0.3288 Z
    Strength   :     0.0799551977
    D(  187) --> V(   10) amplitude = -0.2218 alpha
    D(  170) --> S(    1) amplitude = -0.1894 beta
    D(  176) --> S(    1) amplitude = -0.3157 beta
    D(  176) --> S(    3) amplitude = -0.2779 beta

 Excited state  67: excitation energy (eV) =    5.1174
 Total energy for state 67:                 -3552.32041422 au
    <S**2>     :  9.1475
    Trans. Mom.:  0.8770 X   0.1019 Y   0.2515 Z
    Strength   :     0.1056708006
    D(  187) --> V(   10) amplitude =  0.1616 alpha
    S(    3) --> V(   10) amplitude = -0.1802 alpha
    D(  187) --> V(   15) amplitude =  0.3141 beta
    D(  187) --> V(   19) amplitude =  0.2104 beta
    D(  188) --> V(   15) amplitude =  0.1848 beta
    D(  189) --> V(   15) amplitude =  0.3085 beta
    D(  189) --> V(   17) amplitude =  0.1869 beta
    D(  189) --> V(   19) amplitude =  0.1571 beta

 Excited state  68: excitation energy (eV) =    5.1459
 Total energy for state 68:                 -3552.31936602 au
    <S**2>     : 10.1566
    Trans. Mom.: -0.0217 X  -0.0009 Y  -0.0064 Z
    Strength   :     0.0000647377
    S(    5) --> V(    2) amplitude = -0.3324 alpha
    S(    5) --> V(    4) amplitude =  0.3212 alpha
    S(    5) --> V(    5) amplitude = -0.1512 alpha
    S(    5) --> V(    7) amplitude =  0.3632 alpha
    S(    5) --> V(    9) amplitude =  0.2268 alpha
    S(    5) --> V(   11) amplitude =  0.2682 alpha
    S(    5) --> V(   13) amplitude =  0.2474 alpha
    S(    5) --> V(   14) amplitude = -0.2246 alpha
    S(    5) --> V(   20) amplitude = -0.1770 alpha

 Excited state  69: excitation energy (eV) =    5.1496
 Total energy for state 69:                 -3552.31923002 au
    <S**2>     :  9.3266
    Trans. Mom.: -0.5739 X  -0.0770 Y  -0.1227 Z
    Strength   :     0.0441981789
    D(  176) --> S(    2) amplitude =  0.1591 beta
    D(  186) --> S(    5) amplitude =  0.2379 beta
    D(  186) --> V(    3) amplitude = -0.1555 beta
    D(  187) --> V(   15) amplitude = -0.1817 beta
    D(  189) --> V(    2) amplitude =  0.1655 beta
    D(  189) --> V(    3) amplitude =  0.1730 beta
    D(  189) --> V(    8) amplitude = -0.1603 beta
    D(  189) --> V(   14) amplitude = -0.1576 beta
    D(  189) --> V(   15) amplitude =  0.4024 beta
    D(  189) --> V(   17) amplitude =  0.2612 beta
    D(  189) --> V(   19) amplitude =  0.2251 beta

 Excited state  70: excitation energy (eV) =    5.1639
 Total energy for state 70:                 -3552.31870401 au
    <S**2>     : 10.6443
    Trans. Mom.: -0.0545 X  -0.0273 Y   0.0087 Z
    Strength   :     0.0004797381
    D(  185) --> V(   30) amplitude =  0.1809 alpha
    D(  185) --> V(   33) amplitude =  0.2400 alpha
    D(  185) --> V(   37) amplitude = -0.1664 alpha
[...]
 -0.5838  -0.5713  -0.5629  -0.5626  -0.5551  -0.5541  -0.5514  -0.5480
 -0.5462  -0.5445  -0.5348  -0.5332  -0.5282  -0.5277  -0.5229  -0.5196
 -0.5181  -0.5161  -0.5113  -0.5078  -0.5034  -0.5020  -0.4998  -0.4950
 -0.4889  -0.4847  -0.4830  -0.4800  -0.4769  -0.4745  -0.4729  -0.4715
 -0.4697  -0.4686  -0.4651  -0.4623  -0.4577  -0.4576  -0.4538  -0.4471
 -0.4452  -0.4387  -0.4367  -0.4322  -0.4309  -0.4292  -0.4236  -0.4178
 -0.4155  -0.4153  -0.4131  -0.4091  -0.4043  -0.4003  -0.3979  -0.3933
 -0.3924  -0.3911  -0.3853  -0.3834  -0.3824  -0.3777  -0.3755  -0.3679
 -0.3665  -0.3613  -0.3500  -0.3403  -0.3337  -0.3327  -0.3277  -0.3239
 -0.3224  -0.3185  -0.3178  -0.3163  -0.3131  -0.3116  -0.2889  -0.2804
 -0.2755  -0.2721  -0.2617  -0.2269  -0.2263
 -- Virtual --
 -0.0269  -0.0235  -0.0214   0.0131   0.0146   0.0167   0.0174   0.0190
  0.0204   0.0222   0.0240   0.0257   0.0263   0.0281   0.0322   0.0323
  0.0341   0.0360   0.0386   0.0416   0.0423   0.0437   0.0456   0.0462
  0.0483   0.0520   0.0530   0.0552   0.0577   0.0587   0.0603   0.0611
  0.0630   0.0644   0.0657   0.0667   0.0681   0.0695   0.0729   0.0735
  0.0758   0.0780   0.0799   0.0822   0.0833   0.0846   0.0871   0.0874
  0.0885   0.0902   0.0927   0.0953   0.0975   0.0983   0.0994   0.1016
  0.1030   0.1056   0.1060   0.1073   0.1077   0.1106   0.1114   0.1120
  0.1125   0.1135   0.1158   0.1163   0.1189   0.1202   0.1227   0.1234
  0.1236   0.1261   0.1275   0.1287   0.1301   0.1302   0.1313   0.1335
  0.1349   0.1353   0.1370   0.1372   0.1409   0.1411   0.1423   0.1450
  0.1455   0.1457   0.1465   0.1477   0.1490   0.1507   0.1523   0.1533
  0.1552   0.1560   0.1573   0.1584   0.1588   0.1601   0.1621   0.1628
  0.1641   0.1651   0.1665   0.1675   0.1689   0.1699   0.1706   0.1736
  0.1753   0.1758   0.1780   0.1794   0.1799   0.1814   0.1827   0.1834
  0.1857   0.1867   0.1879   0.1885   0.1895   0.1914   0.1937   0.1951
  0.1958   0.1971   0.1992   0.2007   0.2017   0.2037   0.2039   0.2064
  0.2080   0.2093   0.2111   0.2116   0.2131   0.2146   0.2170   0.2178
  0.2191   0.2204   0.2229   0.2237   0.2258   0.2275   0.2282   0.2298
  0.2307   0.2319   0.2332   0.2351   0.2368   0.2377   0.2391   0.2413
  0.2426   0.2434   0.2441   0.2450   0.2463   0.2471   0.2496   0.2513
  0.2522   0.2532   0.2540   0.2555   0.2562   0.2582   0.2593   0.2610
  0.2628   0.2639   0.2645   0.2646   0.2656   0.2677   0.2684   0.2699
  0.2702   0.2710   0.2725   0.2740   0.2747   0.2758   0.2765   0.2775
  0.2778   0.2804   0.2818   0.2828   0.2838   0.2854   0.2860   0.2867
  0.2875   0.2890   0.2905   0.2916   0.2926   0.2935   0.2937   0.2972
  0.2997   0.3003   0.3016   0.3021   0.3041   0.3061   0.3074   0.3078
  0.3090   0.3098   0.3119   0.3128   0.3144   0.3156   0.3166   0.3179
  0.3202   0.3212   0.3225   0.3231   0.3246   0.3257   0.3279   0.3282
  0.3297   0.3301   0.3314   0.3343   0.3353   0.3363   0.3364   0.3373
  0.3393   0.3408   0.3431   0.3451   0.3459   0.3461   0.3473   0.3499
  0.3504   0.3524   0.3542   0.3546   0.3551   0.3576   0.3582   0.3600
  0.3621   0.3627   0.3633   0.3643   0.3648   0.3668   0.3680   0.3701
  0.3732   0.3736   0.3747   0.3753   0.3764   0.3774   0.3793   0.3816
  0.3821   0.3832   0.3844   0.3874   0.3888   0.3891   0.3925   0.3929
  0.3951   0.3965   0.3982   0.3987   0.3991   0.4018   0.4036   0.4058
  0.4069   0.4071   0.4074   0.4083   0.4112   0.4124   0.4137   0.4159
  0.4169   0.4189   0.4196   0.4224   0.4231   0.4241   0.4251   0.4271
  0.4293   0.4312   0.4315   0.4323   0.4329   0.4349   0.4358   0.4377
  0.4396   0.4413   0.4427   0.4451   0.4472   0.4484   0.4508   0.4512
  0.4529   0.4539   0.4568   0.4586   0.4591   0.4595   0.4631   0.4645
  0.4652   0.4666   0.4692   0.4714   0.4726   0.4739   0.4773   0.4774
  0.4784   0.4800   0.4824   0.4835   0.4847   0.4865   0.4874   0.4885
  0.4893   0.4909   0.4921   0.4931   0.4943   0.4970   0.4982   0.5007
  0.5010   0.5032   0.5049   0.5065   0.5081   0.5101   0.5123   0.5138
  0.5161   0.5174   0.5188   0.5199   0.5217   0.5234   0.5242   0.5245
  0.5260   0.5292   0.5316   0.5337   0.5339   0.5369   0.5388   0.5402
  0.5411   0.5424   0.5450   0.5473   0.5479   0.5508   0.5518   0.5526
  0.5549   0.5565   0.5581   0.5603   0.5624   0.5635   0.5638   0.5656
  0.5671   0.5693   0.5704   0.5733   0.5751   0.5761   0.5781   0.5795
  0.5800   0.5818   0.5857   0.5863   0.5881   0.5900   0.5914   0.5934
  0.5951   0.5957   0.5991   0.5995   0.6014   0.6026   0.6065   0.6075
  0.6086   0.6090   0.6109   0.6118   0.6145   0.6168   0.6187   0.6200
  0.6204   0.6220   0.6228   0.6269   0.6287   0.6294   0.6299   0.6323
  0.6341   0.6360   0.6365   0.6383   0.6413   0.6428   0.6435   0.6460
  0.6469   0.6493   0.6502   0.6510   0.6540   0.6550   0.6563   0.6592
  0.6601   0.6617   0.6629   0.6639   0.6663   0.6686   0.6703   0.6725
  0.6739   0.6743   0.6759   0.6772   0.6790   0.6797   0.6817   0.6843
  0.6858   0.6876   0.6886   0.6915   0.6933   0.6938   0.6949   0.6966
  0.6979   0.7007   0.7014   0.7043   0.7052   0.7080   0.7095   0.7109
  0.7117   0.7130   0.7149   0.7159   0.7165   0.7192   0.7194   0.7213
  0.7253   0.7260   0.7276   0.7291   0.7299   0.7313   0.7321   0.7339
  0.7353   0.7364   0.7386   0.7405   0.7426   0.7447   0.7463   0.7479
  0.7491   0.7507   0.7518   0.7535   0.7558   0.7570   0.7616   0.7623
  0.7635   0.7645   0.7653   0.7692   0.7698   0.7724   0.7736   0.7752
  0.7756   0.7771   0.7794   0.7817   0.7827   0.7839   0.7845   0.7878
  0.7895   0.7902   0.7929   0.7950   0.7965   0.7979   0.7998   0.8012
  0.8028   0.8039   0.8060   0.8069   0.8086   0.8092   0.8122   0.8151
  0.8168   0.8180   0.8182   0.8208   0.8227   0.8248   0.8254   0.8265
  0.8274   0.8303   0.8328   0.8338   0.8344   0.8354   0.8389   0.8415
  0.8427   0.8441   0.8476   0.8485   0.8513   0.8516   0.8527   0.8549
  0.8576   0.8591   0.8608   0.8648   0.8660   0.8677   0.8684   0.8710
  0.8724   0.8741   0.8754   0.8759   0.8787   0.8798   0.8820   0.8826
  0.8849   0.8862   0.8877   0.8928   0.8956   0.8971   0.9003   0.9005
  0.9024   0.9041   0.9064   0.9077   0.9086   0.9116   0.9136   0.9156
  0.9174   0.9199   0.9220   0.9241   0.9251   0.9269   0.9292   0.9305
  0.9326   0.9357   0.9410   0.9425   0.9441   0.9476   0.9488   0.9505
  0.9526   0.9556   0.9573   0.9591   0.9607   0.9628   0.9650   0.9663
  0.9677   0.9699   0.9735   0.9772   0.9791   0.9808   0.9831   0.9872
  0.9882   0.9913   0.9942   0.9967   0.9979   1.0019   1.0050   1.0071
  1.0100   1.0118   1.0158   1.0163   1.0190   1.0217   1.0233   1.0249
  1.0317   1.0319   1.0360   1.0399   1.0453   1.0465   1.0476   1.0513
  1.0520   1.0527   1.0550   1.0570   1.0610   1.0611   1.0627   1.0674
  1.0706   1.0732   1.0771   1.0805   1.0840   1.0886   1.0922   1.0927
  1.0932   1.0987   1.0987   1.1011   1.1050   1.1081   1.1090   1.1115
  1.1134   1.1153   1.1195   1.1207   1.1230   1.1250   1.1313   1.1328
  1.1362   1.1406   1.1431   1.1445   1.1478   1.1531   1.1546   1.1571
  1.1597   1.1611   1.1660   1.1694   1.1719   1.1762   1.1787   1.1820
  1.1844   1.1864   1.1905   1.1938   1.1948   1.1993   1.2012   1.2024
  1.2053   1.2087   1.2116   1.2186   1.2202   1.2233   1.2259   1.2297
  1.2324   1.2355   1.2370   1.2402   1.2437   1.2451   1.2516   1.2542
  1.2574   1.2593   1.2617   1.2667   1.2710   1.2748   1.2751   1.2794
  1.2853   1.2880   1.2909   1.2914   1.2930   1.2957   1.2987   1.2991
  1.3028   1.3096   1.3113   1.3165   1.3172   1.3186   1.3239   1.3279
  1.3309   1.3328   1.3361   1.3386   1.3427   1.3468   1.3490   1.3510
  1.3548   1.3594   1.3613   1.3633   1.3642   1.3692   1.3743   1.3809
  1.3828   1.3850   1.3896   1.3906   1.3944   1.3977   1.4008   1.4019
  1.4061   1.4089   1.4120   1.4181   1.4204   1.4241   1.4261   1.4287
  1.4331   1.4333   1.4382   1.4389   1.4440   1.4504   1.4515   1.4577
  1.4611   1.4628   1.4673   1.4708   1.4717   1.4723   1.4745   1.4777
  1.4838   1.4889   1.4901   1.4951   1.4971   1.5016   1.5062   1.5097
  1.5113   1.5133   1.5166   1.5179   1.5244   1.5295   1.5319   1.5332
  1.5375   1.5392   1.5400   1.5440   1.5476   1.5537   1.5573   1.5585
  1.5617   1.5658   1.5667   1.5705   1.5737   1.5747   1.5777   1.5781
  1.5809   1.5825   1.5895   1.5906   1.5936   1.5973   1.6009   1.6027
  1.6067   1.6083   1.6115   1.6136   1.6177   1.6189   1.6226   1.6238
  1.6270   1.6289   1.6356   1.6366   1.6432   1.6453   1.6470   1.6491
  1.6532   1.6553   1.6599   1.6616   1.6641   1.6679   1.6717   1.6736
  1.6759   1.6796   1.6831   1.6870   1.6887   1.6899   1.6924   1.6969
  1.6994   1.7014   1.7034   1.7064   1.7110   1.7115   1.7146   1.7217
  1.7242   1.7279   1.7298   1.7340   1.7381   1.7403   1.7421   1.7436
  1.7465   1.7483   1.7508   1.7524   1.7545   1.7571   1.7605   1.7634
  1.7649   1.7716   1.7724   1.7744   1.7774   1.7798   1.7810   1.7834
  1.7887   1.7900   1.7915   1.7956   1.8007   1.8035   1.8060   1.8069
  1.8090   1.8149   1.8153   1.8197   1.8247   1.8267   1.8300   1.8304
  1.8328   1.8389   1.8404   1.8440   1.8476   1.8492   1.8522   1.8543
  1.8583   1.8624   1.8644   1.8658   1.8684   1.8705   1.8712   1.8745
  1.8770   1.8807   1.8852   1.8887   1.8892   1.8909   1.8930   1.8984
  1.9001   1.9078   1.9089   1.9117   1.9144   1.9161   1.9185   1.9224
  1.9238   1.9270   1.9301   1.9338   1.9385   1.9422   1.9430   1.9473
  1.9498   1.9528   1.9534   1.9544   1.9593   1.9605   1.9622   1.9651
  1.9679   1.9742   1.9759   1.9791   1.9810   1.9839   1.9897   1.9916
  1.9944   1.9958   1.9988   2.0005   2.0052   2.0081   2.0105   2.0116
  2.0184   2.0213   2.0233   2.0247   2.0280   2.0323   2.0333   2.0366
  2.0390   2.0405   2.0437   2.0455   2.0491   2.0497   2.0518   2.0549
  2.0565   2.0608   2.0633   2.0670   2.0705   2.0721   2.0756   2.0784
  2.0802   2.0823   2.0864   2.0868   2.0904   2.0959   2.0973   2.0988
  2.1002   2.1040   2.1091   2.1093   2.1139   2.1181   2.1200   2.1214
  2.1288   2.1313   2.1354   2.1383   2.1400   2.1422   2.1442   2.1450
  2.1479   2.1538   2.1573   2.1602   2.1627   2.1649   2.1652   2.1680
  2.1716   2.1757   2.1781   2.1797   2.1838   2.1866   2.1901   2.1935
  2.1949   2.1964   2.2006   2.2026   2.2072   2.2089   2.2105   2.2112
  2.2166   2.2218   2.2235   2.2260   2.2274   2.2296   2.2337   2.2392
  2.2436   2.2469   2.2555   2.2567   2.2607   2.2612   2.2633   2.2676
  2.2737   2.2755   2.2800   2.2834   2.2873   2.2886   2.2924   2.2933
  2.2999   2.3020   2.3050   2.3071   2.3133   2.3155   2.3211   2.3223
  2.3252   2.3311   2.3342   2.3393   2.3433   2.3489   2.3514   2.3533
  2.3552   2.3570   2.3619   2.3656   2.3704   2.3773   2.3795   2.3855
  2.3907   2.3908   2.3940   2.3951   2.3985   2.4064   2.4093   2.4153
  2.4162   2.4179   2.4241   2.4282   2.4316   2.4361   2.4388   2.4438
  2.4490   2.4508   2.4515   2.4561   2.4607   2.4673   2.4719   2.4727
  2.4762   2.4778   2.4816   2.4875   2.4909   2.4948   2.5070   2.5101
  2.5189   2.5206   2.5243   2.5330   2.5347   2.5407   2.5438   2.5463
  2.5503   2.5529   2.5571   2.5615   2.5687   2.5710   2.5745   2.5845
  2.5875   2.5900   2.5960   2.5987   2.6020   2.6057   2.6114   2.6120
  2.6149   2.6162   2.6256   2.6290   2.6374   2.6425   2.6427   2.6491
  2.6511   2.6609   2.6612   2.6675   2.6781   2.6808   2.6892   2.6946
  2.6975   2.7005   2.7035   2.7093   2.7120   2.7209   2.7219   2.7236
  2.7277   2.7340   2.7398   2.7438   2.7464   2.7502   2.7507   2.7553
  2.7613   2.7662   2.7671   2.7705   2.7761   2.7793   2.7844   2.7924
  2.7998   2.8053   2.8079   2.8138   2.8218   2.8240   2.8263   2.8398
  2.8445   2.8463   2.8507   2.8522   2.8630   2.8673   2.8686   2.8749
  2.8829   2.8899   2.8949   2.8992   2.9064   2.9078   2.9126   2.9172
  2.9219   2.9312   2.9356   2.9373   2.9431   2.9510   2.9559   2.9629
  2.9693   2.9772   2.9803   2.9942   2.9992   3.0067   3.0104   3.0182
  3.0292   3.0316   3.0394   3.0443   3.0514   3.0608   3.0774   3.0799
  3.0878   3.0958   3.1052   3.1095   3.1240   3.1292   3.1331   3.1560
  3.1826   3.1866   3.1997   3.2065   3.2170   3.2333   3.2384   3.2516
  3.2672   3.2878   3.2965   3.3077   3.3378   3.3433   3.3518   3.3656
  3.3688   3.3734   3.3928   3.4022   3.4075   3.4170   3.4300   3.4493
  3.4640   3.4650   3.4718   3.4870   3.4924   3.5425   3.5481   3.5521
  3.5631   3.5681   3.5720   3.5963   3.5998   3.6021   3.6107   3.6184
  3.6235   3.6287   3.6417   3.6474   3.6493   3.6586   3.6621   3.6742
  3.6862   3.7005   3.7073   3.7120   3.7338   3.7380   3.7508   3.7564
  3.7571   3.7632   3.7730   3.7916   3.8022   3.8065   3.8127   3.8208
  3.8403   3.8455   3.8514   3.8661   3.8698   3.8789   3.8864   3.9091
  3.9150   3.9285   3.9326   3.9647   3.9710   3.9918   4.0066   4.0231
  4.0294   4.0512   4.0638   4.0710   4.0921   4.1082   4.1213   4.1562
  4.1843   4.1911   4.2376   4.3415   4.3694   4.4023   4.5082   4.5967
  4.6866   4.7250   4.7407   4.8825
 --------------------------------------------------------------
 
          Ground-State Mulliken Net Atomic Charges

     Atom                 Charge (a.u.)    Spin (a.u.)
  --------------------------------------------------------
      1 C                     0.457652      -0.014457
      2 C                     1.180254       0.025364
      3 C                     1.516086       0.011519
      4 C                     0.898429      -0.003721
      5 C                     0.588390       0.019975
      6 C                     0.432639      -0.018672
      7 H                    -1.220317       0.000642
      8 O                    -1.086361       0.139895
      9 C                     0.029926      -0.003148
     10 O                    -0.836401       0.001760
     11 N                    -0.023669      -0.000069
     12 H                    -0.142605      -0.000392
     13 C                     1.177496       0.000069
     14 H                    -0.429777       0.000046
     15 H                    -0.530539       0.000022
     16 C                     1.583380       0.000028
     17 H                    -0.509798       0.000005
     18 H                    -0.965038      -0.000137
     19 N                    -0.582048      -0.000006
     20 H                    -0.020337      -0.000009
     21 C                     1.091832      -0.000181
     22 H                    -0.424602      -0.000027
     23 H                    -0.422450      -0.000012
     24 C                     1.284783       0.000086
     25 H                    -0.571026      -0.000001
     26 H                    -0.605846      -0.000004
     27 C                     0.994236      -0.001118
     28 H                    -0.543012      -0.000058
     29 H                    -0.465418      -0.000038
     30 C                     1.821281       0.000293
     31 H                    -0.818050      -0.000205
     32 N                     0.192784       0.003620
     33 H                    -0.124030       0.001261
     34 C                    -1.590889      -0.006156
     35 O                    -0.384040       0.081825
     36 C                     3.106911       0.032627
     37 H                    -1.466591      -0.000799
     38 C                     1.063463       0.015868
     39 H                    -0.458719       0.000381
     40 H                    -0.668677      -0.000150
     41 C                     0.875104      -0.002387
     42 O                    -0.932773       0.000093
     43 N                     0.287653      -0.000244
     44 C                     1.510516       0.000030
     45 H                     0.048402       0.000660
     46 C                     1.465589       0.000263
     47 H                    -0.507632      -0.000053
     48 H                    -0.695317      -0.000011
     49 C                     1.093855      -0.000151
     50 H                    -0.561270      -0.000048
     51 H                    -0.995027       0.000003
     52 C                     1.034572       0.000081
     53 H                    -0.595009       0.000001
     54 H                    -0.533036      -0.000319
     55 H                    -0.475629       0.000012
     56 H                    -0.598050       0.000002
     57 C                    -0.481128      -0.002685
     58 C                     0.795365      -0.005396
     59 O                    -0.899528       0.001660
     60 C                     1.974679       0.012879
     61 C                     0.408354       0.019254
     62 C                     1.928152       0.025878
     63 C                     0.436789      -0.019474
     64 C                    -0.428279      -0.014611
     65 H                    -1.642203       0.001890
     66 O                    -1.002313       0.138704
     67 C                    -0.514983      -0.020900
     68 O                    -0.955110       0.081064
     69 H                    -1.048657      -0.000566
     70 O                    -0.992665       0.138335
     71 H                    -1.080924      -0.000383
     72 O                    -1.175692       0.126966
     73 Fe                    2.011931       4.233657
     74 N                    -0.193379       0.000015
     75 H                    -0.065852      -0.000001
     76 N                     0.279880       0.000092
     77 H                    -0.082639      -0.000324
     78 C                     1.075646      -0.000195
     79 H                    -0.469033      -0.000027
     80 H                    -0.617657       0.000017
     81 C                     1.206243       0.000067
     82 H                    -0.468254       0.000022
     83 H                    -0.405706      -0.000013
     84 C                     1.594339      -0.000005
     85 H                    -0.652971       0.000022
     86 H                    -0.778401       0.000291
     87 H                    -1.134749      -0.000019
     88 H                    -1.156083       0.000024
     89 H                    -0.696937      -0.000050
     90 C                     1.291948      -0.000066
     91 H                    -0.534969       0.000033
     92 H                    -0.476461      -0.000016
  --------------------------------------------------------
  Sum of atomic charges =    -2.000000
  Sum of spin   charges =     5.000000

 -----------------------------------------------------------------
                    Cartesian Multipole Moments
 -----------------------------------------------------------------
    Charge (ESU x 10^10)
                -9.6064
    Dipole Moment (Debye)
         X      -0.1073      Y      19.7518      Z      19.4210
       Tot      27.7006
    Quadrupole Moments (Debye-Ang)
        XX    -468.0127     XY      50.4180     YY    -362.5892
        XZ      19.2732     YZ      -4.0463     ZZ    -336.8865
    Octopole Moments (Debye-Ang^2)
       XXX     274.5053    XXY     587.0299    XYY      66.7814
       YYY     223.8126    XXZ     505.4215    XYZ    -133.7729
       YYZ     306.2657    XZZ     -72.2422    YZZ      58.9778
       ZZZ     670.9919
    Hexadecapole Moments (Debye-Ang^3)
      XXXX  -57353.7074   XXXY    2394.3078   XXYY   -9755.4841
      XYYY     148.5937   YYYY   -6618.8706   XXXZ    2900.5069
      XXYZ    -981.6945   XYYZ     505.0820   YYYZ    -495.9226
      XXZZ   -8855.2413   XYZZ     511.9088   YYZZ   -2295.3336
      XZZZ    1157.6388   YZZZ    -621.9759   ZZZZ   -6313.4523
 -----------------------------------------------------------------
 Total job time:  547836.49s(wall), 9589716.92s(cpu) 
 Thu Mar  7 06:54:51 2024

        *************************************************************
        *                                                           *
        *  Thank you very much for using Q-Chem.  Have a nice day.  *
        *                                                           *
        *************************************************************


