
Running Job 1 of 1 C_FePBstar_enol_ctL_2sextet_b3lypD3bj_ccpVDZ_pcmH2O_opt.in
qchem C_FePBstar_enol_ctL_2sextet_b3lypD3bj_ccpVDZ_pcmH2O_opt.in_194028.0 /scratch/qchem_scratch/qchem194028/ 0
/opt/qchem/6.0.2/exe/qcprog.exe_s C_FePBstar_enol_ctL_2sextet_b3lypD3bj_ccpVDZ_pcmH2O_opt.in_194028.0 /scratch/qchem_scratch/qchem194028/
                  Welcome to Q-Chem
     A Quantum Leap Into The Future Of Chemistry


 Q-Chem 6.0, Q-Chem, Inc., Pleasanton, CA (2022)

 E. Epifanovsky,  A. T. B. Gilbert,  Xintian Feng,  Joonho Lee,  Yuezhi Mao,  
 N. Mardirossian,  P. Pokhilko,  A. White,  M. Wormit,  M. P. Coons,  
 A. L. Dempwolff,  Zhengting Gan,  D. Hait,  P. R. Horn,  L. D. Jacobson,  
 I. Kaliman,  J. Kussmann,  A. W. Lange,  Ka Un Lao,  D. S. Levine,  Jie Liu,  
 S. C. McKenzie,  A. F. Morrison,  K. Nanda,  F. Plasser,  D. R. Rehn,  
 M. L. Vidal,  Zhi-Qiang You,  Ying Zhu,  B. Alam,  B. Albrecht,  
 A. Aldossary,  E. Alguire,  J. H. Andersen,  V. Athavale,  D. Barton,  
 K. Begam,  A. Behn,  N. Bellonzi,  Y. A. Bernard,  E. J. Berquist,  
 H. Burton,  A. Carreras,  K. Carter-Fenk,  Romit Chakraborty,  
 Chandrima Chakravarty,  Junhan Chen,  A. D. Chien,  K. D. Closser,  
 V. Cofer-Shabica,  L. Cunha,  S. Dasgupta,  Jia Deng,  M. de Wergifosse,  
 M. Diedenhofen,  Hainam Do,  S. Ehlert,  Po-Tung Fang,  S. Fatehi,  
 Qingguo Feng,  T. Friedhoff,  B. Ganoe,  J. Gayvert,  Qinghui Ge,  
 G. Gidofalvi,  M. Goldey,  J. Gomes,  C. Gonzalez-Espinoza,  S. Gulania,  
 A. Gunina,  J. A. Gyamfi,  M. W. D. Hanson-Heine,  P. H. P. Harbach,  
 A. W. Hauser,  M. F. Herbst,  M. Hernandez Vera,  M. Hodecker,  
 Z. C. Holden,  S. Houck,  Xunkun Huang,  Kerwin Hui,  B. C. Huynh,  
 K. Ikeda,  M. Ivanov,  Hyunjun Ji,  Zuxin Jin,  Hanjie Jiang,  B. Kaduk,  
 S. Kaehler,  R. Kang,  K. Khistyaev,  Jaehoon Kim,  Yongbin Kim,  
 P. Klunzinger,  Z. Koczor-Benda,  Joong Hoon Koh,  D. Kosenkov,  
 Saikiran Kotaru,  L. Koulias,  T. Kowalczyk,  C. M. Krauter,  K. Kue,  
 A. Kunitsa,  T. Kus,  A. Landau,  K. V. Lawler,  D. Lefrancois,  S. Lehtola,  
 Rain Li,  Shaozhi Li,  Yi-Pei Li,  Jiashu Liang,  M. Liebenthal,  
 Hung-Hsuan Lin,  You-Sheng Lin,  Fenglai Liu,  Kuan-Yu Liu,  
 M. Loipersberger,  A. Luenser,  C. Malbon,  A. Manjanath,  P. Manohar,  
 E. Mansoor,  S. F. Manzer,  Shan-Ping Mao,  A. V. Marenich,  T. Markovich,  
 S. Mason,  F. Matz,  S. A. Maurer,  P. F. McLaughlin,  M. F. S. J. Menger,  
 J.-M. Mewes,  S. A. Mewes,  P. Morgante,  Mohammad Mostafanejad,  
 J. W. Mullinax,  K. J. Oosterbaan,  G. Paran,  V. Parravicini,  
 Alexander C. Paul,  Suranjan K. Paul,  F. Pavosevic,  Zheng Pei,  S. Prager,  
 E. I. Proynov,  E. Ramos,  B. Rana,  A. E. Rask,  A. Rettig,  R. M. Richard,  
 F. Rob,  E. Rossomme,  T. Scheele,  M. Scheurer,  M. Schneider,  
 P. E. Schneider,  N. Sergueev,  S. M. Sharada,  Hengyuan Shen,  
 W. Skomorowski,  D. W. Small,  C. J. Stein,  Yingli Su,  Yu-Chuan Su,  
 E. J. Sundstrom,  Zhen Tao,  J. Thirman,  Hung-Yi Tsai,  T. Tsuchimochi,  
 N. M. Tubman,  C. Utku,  S. P. Veccham,  O. Vydrov,  J. Wenzel,  
 Jonathan Wong,  J. Witte,  A. Yamada,  Chou-Hsun Yang,  Kun Yao,  
 S. Yeganeh,  S. R. Yost,  A. Zech,  F. Zeller,  Igor Ying Zhang,  
 Xing Zhang,  Yu Zhang,  D. Zuev,  A. Aspuru-Guzik,  A. T. Bell,  
 N. A. Besley,  K. B. Bravaya,  B. R. Brooks,  D. Casanova,  Jeng-Da Chai,  
 Hsing-Ta Chen,  S. Coriani,  C. J. Cramer,  A. E. DePrince, III,  
 R. A. DiStasio Jr.,  A. Dreuw,  B. D. Dunietz,  T. R. Furlani,  
 W. A. Goddard III,  S. Grimme,  S. Hammes-Schiffer,  T. Head-Gordon,  
 W. J. Hehre,  Chao-Ping Hsu,  T.-C. Jagau,  Yousung Jung,  A. Klamt,  
 Jing Kong,  D. S. Lambrecht,  Xiangyuan Li,  WanZhen Liang,  N. J. Mayhall,  
 C. W. McCurdy,  J. B. Neaton,  T. Neudecker,  C. Ochsenfeld,  
 J. A. Parkhill,  R. Peverati,  V. A. Rassolov,  Haisheng Ren,  Yihan Shao,  
 L. V. Slipchenko,  R. P. Steele,  J. E. Subotnik,  A. J. W. Thom,  
 A. Tkatchenko,  D. G. Truhlar,  T. Van Voorhis,  Fan Wang,  
 T. A. Wesolowski,  K. B. Whaley,  H. L. Woodcock III,  P. M. Zimmerman,  
 S. Faraji,  P. M. W. Gill,  M. Head-Gordon,  J. M. Herbert,  A. I. Krylov

 Contributors to earlier versions of Q-Chem not listed above: 
 R. D. Adamson,  B. Austin,  R. Baer,  J. Baker,  G. J. O. Beran,  
 K. Brandhorst,  S. T. Brown,  E. F. C. Byrd,  Arup K. Chakraborty,  
 G. K. L. Chan,  Chun-Min Chang,  Yunqing Chen,  C.-L. Cheng,  
 Siu Hung Chien,  D. M. Chipman,  D. L. Crittenden,  H. Dachsel,  
 R. J. Doerksen,  A. D. Dutoi,  R. G. Edgar,  J. Fosso-Tande,  
 L. Fusti-Molnar,  D. Ghosh,  A. Ghysels,  A. Golubeva-Zadorozhnaya,  
 J. Gonthier,  M. S. Gordon,  S. R. Gwaltney,  G. Hawkins,  J. E. Herr,  
 A. Heyden,  S. Hirata,  E. G. Hohenstein,  G. Kedziora,  F. J. Keil,  
 C. Kelley,  Jihan Kim,  R. A. King,  R. Z. Khaliullin,  P. P. Korambath,  
 W. Kurlancheek,  A. Laurent,  A. M. Lee,  M. S. Lee,  S. V. Levchenko,  
 Ching Yeh Lin,  D. Liotard,  E. Livshits,  R. C. Lochan,  I. Lotan,  
 L. A. Martinez-Martinez,  P. E. Maslen,  N. Nair,  D. P. O'Neill,  
 D. Neuhauser,  E. Neuscamman,  C. M. Oana,  R. Olivares-Amaya,  R. Olson,  
 T. M. Perrine,  B. Peters,  P. A. Pieniazek,  A. Prociuk,  Y. M. Rhee,  
 J. Ritchie,  M. A. Rohrdanz,  E. Rosta,  N. J. Russ,  H. F. Schaefer III,  
 M. W. Schmidt,  N. E. Schultz,  S. Sharma,  N. Shenvi,  C. D. Sherrill,  
 A. C. Simmonett,  A. Sodt,  T. Stein,  D. Stuck,  K. S. Thanthiriwatte,  
 V. Vanovschi,  L. Vogt,  Tao Wang,  A. Warshel,  M. A. Watson,  
 C. F. Williams,  Q. Wu,  X. Xu,  Jun Yang,  W. Zhang,  Yan Zhao

   Please cite Q-Chem as follows:
  "Software for the frontiers of quantum chemistry:
   An overview of developments in the Q-Chem 5 package"
   J. Chem. Phys. 155, 084801 (2021)
   https://doi.org/10.1063/5.0055522 (open access)

 Q-Chem 6.0.2 for Intel X86 EM64T Linux

 Parts of Q-Chem use Armadillo 9.900.5 (Nocturnal Misbehaviour).
 http://arma.sourceforge.net/

 Q-Chem begins on Sun Jan  7 08:33:52 2024  

 Host: 
0

     Scratch files written to /scratch/qchem_scratch/qchem194028//
 Dec722 |scratch|qcdevops|jenkins|workspace|build_RNUM 8907   
 Processing $rem in /opt/qchem/6.0.2/config/preferences:
 Processing $rem in /home/cooksy_group/.qchemrc:
 Symmetry turned off for PCM/SM12/SMD calculation

 Checking the input file for inconsistencies... 	...done.

--------------------------------------------------------------
User input:
--------------------------------------------------------------
$molecule
-2 6
C    2.9303425   -0.7242850   -2.6731035
C    3.9992191   -0.5850099   -3.5601603
C    5.2045850   -1.2137594   -3.2198979
C    5.3068195   -1.9838605   -2.0451423
C    4.2427145   -2.1066318   -1.1798067
C    3.0647346   -1.4659235   -1.5013497
H    3.8992955    0.0166837   -4.4555088
O    1.7265678   -0.1719487   -2.8772568
C    6.4861892   -0.9977231   -3.8697084
O    7.0884012   -2.0156430   -4.1951229
N    7.1576429    0.0160303   -3.2322035
H    6.6486635    0.8972163   -3.0689503
C    7.8703488   -0.0124467   -0.6509102
H    8.4309243    0.9057121   -0.3806801
H    8.3511250   -0.8244190   -0.0336479
C    6.4187163    0.1225056   -0.0330931
H    6.0249882   -0.8716068    0.2788247
H    5.7474385    0.5305311   -0.8065976
N    6.3170709    1.0854197    1.1036063
H    7.1205313    1.7323640    1.2572669
C    5.0531938    1.7426002    3.1609552
H    4.5074634    1.2973704    4.0220428
H    5.8882563    2.3119334    3.6433653
C    5.6946221    0.5972972    2.3467381
H    6.4651328    0.0963666    2.9861587
H    4.8979555   -0.1443502    2.1340787
C    4.1884466    2.8187546    2.4083118
H    3.5677251    3.4243531    3.1051487
H    5.0056291    3.5111381    2.1532562
C    3.5516625    2.6703555    0.9843097
H    3.9563118    3.5232007    0.3804963
N    2.1122155    2.8943225    0.9417137
H    1.7517652    3.7710501    1.3543859
C    1.2570540    2.1436122    0.0692712
O    1.7589619    1.0843695   -0.5883094
C   -0.0186452    2.5315129   -0.1418610
H   -0.3704643    3.4152845    0.4066958
C   -2.4440897    2.2658252   -0.9427817
H   -2.7990020    1.7157664   -0.0122352
H   -2.6259474    3.3340269   -0.7021975
C   -3.3065279    1.8552520   -2.0988368
O   -3.3183949    2.5442154   -3.1047192
N   -4.0449636    0.7198148   -2.0162375
C   -4.9608702    0.2298445   -3.0279930
H   -3.9628593    0.1597033   -1.1654428
C   -6.3235262    0.0074782   -2.3586158
H   -4.5845106   -0.7503960   -3.3949467
H   -5.0427887    0.9185396   -3.8973442
C   -6.9370753    1.3415524   -1.9002910
H   -7.0256635   -0.5074032   -3.0487286
H   -6.1473267   -0.6642479   -1.4936872
C   -8.1379747    1.1755916   -0.9449917
H   -7.2608793    1.8918356   -2.8101595
H   -6.1831732    1.9790536   -1.3980568
H   -8.5802354    2.1786690   -0.7677799
H   -8.9174955    0.5529192   -1.4354224
C   -5.0129344   -1.7632609    1.1306589
C   -3.7201174   -2.5320728   -0.8825417
O   -5.9890008   -2.3759590    0.7197373
C   -3.7417829   -1.8388968    0.3555519
C   -2.5825384   -2.5099940   -1.6956351
C   -2.5792049   -1.1426703    0.7645493
C   -1.4751991   -1.7820341   -1.2809348
C   -1.4713978   -1.1080964   -0.0625755
H   -2.5021923   -0.5882620    1.6825361
O   -0.3556062   -1.6876593   -2.0054180
C   -0.9671809    1.9110295   -1.1391375
O   -0.6869716    0.9194721   -1.8369596
H    4.3634234   -2.6554320   -0.2546784
O    2.0053892   -1.5132048   -0.7073070
H   -2.5711896   -3.0227551   -2.6495842
O   -0.3476676   -0.4338846    0.2562476
Fe    0.7026113   -0.3028760   -1.2981726
N   -7.8002476    0.5803686    0.3648792
H   -7.5446369   -0.4232666    0.2448068
N   -5.1368919   -0.9250819    2.2020053
H   -4.3347650   -0.3969927    2.5602354
C   -6.4048642   -0.5972723    2.8167913
H   -7.2412004   -1.1979054    2.4045843
H   -6.3468564   -0.8045892    3.9066918
C   -6.6879099    0.8988367    2.5832719
H   -7.6452316    1.1744202    3.0708820
H   -5.8761200    1.4910658    3.0650527
C   -6.7355411    1.2965111    1.0913301
H   -6.9138536    2.3934242    1.0422989
H   -5.7459289    1.0887816    0.6254528
H   -4.5924929   -3.0588912   -1.2446390
H    6.2481952   -2.4359953   -1.7589088
H    3.8734023    1.7669011    0.4347970
C    8.1698328   -0.3515123   -2.2180981
H    9.1598571    0.0666988   -2.5409801
H    8.2853762   -1.4540013   -2.2424226
$end

$rem
BASIS  =  gen
DFT_D  =  D3_BJ
GUI  =  2
JOB_TYPE  =  Optimization
METHOD  =  B3LYP
SCF_CONVERGENCE  =  8
SOLVENT_METHOD  =  PCM
$end

$pcm
THEORY  CPCM
$end

$solvent
DIELECTRIC  78.39
$end

$van_der_waals
26   2.44
$end

!----------------------------------------------------------------------
! Basis Set Exchange
! Basis set: cc-pVDZ
!----------------------------------------------------------------------

$rem
BASIS GEN
PURECART 11
$end

$basis
H     0
S   4   1.00
1.301000D+01           1.968500D-02
1.962000D+00           1.379770D-01
4.446000D-01           4.781480D-01
1.220000D-01           5.012400D-01
S   1   1.00
1.220000D-01           1.000000D+00
P   1   1.00
7.270000D-01           1.0000000
****
C     0
S   9   1.00
6.665000D+03           6.920000D-04
1.000000D+03           5.329000D-03
2.280000D+02           2.707700D-02
6.471000D+01           1.017180D-01
2.106000D+01           2.747400D-01
7.495000D+00           4.485640D-01
2.797000D+00           2.850740D-01
5.215000D-01           1.520400D-02
1.596000D-01          -3.191000D-03
S   9   1.00
6.665000D+03          -1.460000D-04
1.000000D+03          -1.154000D-03
2.280000D+02          -5.725000D-03
6.471000D+01          -2.331200D-02
2.106000D+01          -6.395500D-02
7.495000D+00          -1.499810D-01
2.797000D+00          -1.272620D-01
5.215000D-01           5.445290D-01
1.596000D-01           5.804960D-01
S   1   1.00
1.596000D-01           1.000000D+00
P   4   1.00
9.439000D+00           3.810900D-02
2.002000D+00           2.094800D-01
5.456000D-01           5.085570D-01
1.517000D-01           4.688420D-01
P   1   1.00
1.517000D-01           1.000000D+00
D   1   1.00
5.500000D-01           1.0000000
****
N     0
S   9   1.00
9.046000D+03           7.000000D-04
1.357000D+03           5.389000D-03
3.093000D+02           2.740600D-02
8.773000D+01           1.032070D-01
2.856000D+01           2.787230D-01
1.021000D+01           4.485400D-01
3.838000D+00           2.782380D-01
7.466000D-01           1.544000D-02
2.248000D-01          -2.864000D-03
S   9   1.00
9.046000D+03          -1.530000D-04
1.357000D+03          -1.208000D-03
3.093000D+02          -5.992000D-03
8.773000D+01          -2.454400D-02
2.856000D+01          -6.745900D-02
1.021000D+01          -1.580780D-01
3.838000D+00          -1.218310D-01
7.466000D-01           5.490030D-01
2.248000D-01           5.788150D-01
S   1   1.00
2.248000D-01           1.000000D+00
P   4   1.00
1.355000D+01           3.991900D-02
2.917000D+00           2.171690D-01
7.973000D-01           5.103190D-01
2.185000D-01           4.622140D-01
P   1   1.00
2.185000D-01           1.000000D+00
D   1   1.00
8.170000D-01           1.0000000
****
O     0
S   9   1.00
1.172000D+04           7.100000D-04
1.759000D+03           5.470000D-03
4.008000D+02           2.783700D-02
1.137000D+02           1.048000D-01
3.703000D+01           2.830620D-01
1.327000D+01           4.487190D-01
5.025000D+00           2.709520D-01
1.013000D+00           1.545800D-02
3.023000D-01          -2.585000D-03
S   9   1.00
1.172000D+04          -1.600000D-04
1.759000D+03          -1.263000D-03
4.008000D+02          -6.267000D-03
1.137000D+02          -2.571600D-02
3.703000D+01          -7.092400D-02
1.327000D+01          -1.654110D-01
5.025000D+00          -1.169550D-01
1.013000D+00           5.573680D-01
3.023000D-01           5.727590D-01
S   1   1.00
3.023000D-01           1.000000D+00
P   4   1.00
1.770000D+01           4.301800D-02
3.854000D+00           2.289130D-01
1.046000D+00           5.087280D-01
2.753000D-01           4.605310D-01
P   1   1.00
2.753000D-01           1.000000D+00
D   1   1.00
1.185000D+00           1.0000000
****
Fe     0
S   20   1.00
4.316265D+06           8.048803D-06
6.463424D+05           6.258306D-05
1.470897D+05           3.290239D-04
4.166152D+04           1.387355D-03
1.359077D+04           5.023256D-03
4.905750D+03           1.610140D-02
1.912746D+03           4.590034D-02
7.926043D+02           1.136154D-01
3.448065D+02           2.283869D-01
1.558999D+02           3.221159D-01
7.223091D+01           2.383661D-01
3.272506D+01           7.404667D-02
1.566762D+01           9.214197D-02
7.503483D+00           9.339790D-02
3.312223D+00           1.573965D-02
1.558471D+00          -4.186682D-04
6.839140D-01           5.376318D-05
1.467570D-01          -3.816654D-05
7.058300D-02           4.319603D-05
3.144900D-02          -3.401019D-06
S   20   1.00
4.316265D+06          -4.155954D-06
6.463424D+05          -3.231401D-05
1.470897D+05          -1.699525D-04
4.166152D+04          -7.171369D-04
1.359077D+04          -2.603625D-03
4.905750D+03          -8.399109D-03
1.912746D+03          -2.434109D-02
7.926043D+02          -6.251948D-02
3.448065D+02          -1.365929D-01
1.558999D+02          -2.312707D-01
7.223091D+01          -2.383734D-01
3.272506D+01           3.123837D-02
1.566762D+01           5.086818D-01
7.503483D+00           4.987695D-01
3.312223D+00           9.033552D-02
1.558471D+00          -6.005337D-03
6.839140D-01           2.312454D-04
1.467570D-01          -5.643680D-04
7.058300D-02           4.992260D-04
3.144900D-02          -1.015293D-04
S   20   1.00
4.316265D+06           9.532178D-07
6.463424D+05           7.414605D-06
1.470897D+05           3.898393D-05
4.166152D+04           1.647152D-04
1.359077D+04           5.985980D-04
4.905750D+03           1.942390D-03
1.912746D+03           5.687237D-03
7.926043D+02           1.501329D-02
3.448065D+02           3.452455D-02
1.558999D+02           6.495820D-02
7.223091D+01           7.716194D-02
3.272506D+01          -1.873411D-02
1.566762D+01          -3.009185D-01
7.503483D+00          -4.554661D-01
3.312223D+00           1.286463D-01
1.558471D+00           7.183316D-01
6.839140D-01           4.051743D-01
1.467570D-01           2.168227D-02
7.058300D-02          -8.343566D-03
3.144900D-02           3.658979D-03
S   20   1.00
4.316265D+06          -2.063008D-07
6.463424D+05          -1.604169D-06
1.470897D+05          -8.438437D-06
4.166152D+04          -3.563151D-05
1.359077D+04          -1.295998D-04
4.905750D+03          -4.201534D-04
1.912746D+03          -1.231954D-03
7.926043D+02          -3.248922D-03
3.448065D+02          -7.493717D-03
1.558999D+02          -1.410102D-02
7.223091D+01          -1.691600D-02
3.272506D+01           4.218996D-03
1.566762D+01           6.833810D-02
7.503483D+00           1.098201D-01
3.312223D+00          -4.009005D-02
1.558471D+00          -2.174739D-01
6.839140D-01          -2.465135D-01
1.467570D-01           2.731435D-01
7.058300D-02           5.748321D-01
3.144900D-02           3.012713D-01
S   20   1.00
4.316265D+06          -4.009367D-07
6.463424D+05          -3.189255D-06
1.470897D+05          -1.623079D-05
4.166152D+04          -7.157920D-05
1.359077D+04          -2.463958D-04
4.905750D+03          -8.544907D-04
1.912746D+03          -2.307593D-03
7.926043D+02          -6.728292D-03
3.448065D+02          -1.366165D-02
1.558999D+02          -3.062240D-02
7.223091D+01          -2.631137D-02
3.272506D+01          -9.760183D-03
1.566762D+01           1.801906D-01
7.503483D+00           1.529634D-01
3.312223D+00           5.505413D-02
1.558471D+00          -9.551364D-01
6.839140D-01           2.586813D-01
1.467570D-01           1.834049D+00
7.058300D-02          -9.333240D-01
3.144900D-02          -6.981605D-01
S   1   1.00
3.144900D-02           1.000000D+00
P   16   1.00
1.774569D+04           4.100000D-05
4.200721D+03           3.690000D-04
1.364429D+03           2.129000D-03
5.220806D+02           9.369000D-03
2.214595D+02           3.309700D-02
1.009096D+02           9.443100D-02
4.840115D+01           2.080770D-01
2.398536D+01           3.323330D-01
1.218250D+01           3.329870D-01
6.242298D+00           1.568430D-01
3.110944D+00           2.154900D-02
1.509958D+00          -2.095000D-03
7.108450D-01          -1.739000D-03
2.731900D-01          -3.000000D-04
1.042330D-01           2.900000D-05
3.829100D-02          -1.100000D-05
P   16   1.00
1.774569D+04          -1.500000D-05
4.200721D+03          -1.300000D-04
1.364429D+03          -7.510000D-04
5.220806D+02          -3.329000D-03
2.214595D+02          -1.191200D-02
1.009096D+02          -3.493300D-02
4.840115D+01          -7.998900D-02
2.398536D+01          -1.346360D-01
1.218250D+01          -1.385980D-01
6.242298D+00           3.027800D-02
3.110944D+00           3.332160D-01
1.509958D+00           4.561530D-01
7.108450D-01           2.850510D-01
2.731900D-01           4.614400D-02
1.042330D-01          -3.249000D-03
3.829100D-02           1.357000D-03
P   16   1.00
1.774569D+04           5.000000D-06
4.200721D+03           4.200000D-05
1.364429D+03           2.410000D-04
5.220806D+02           1.085000D-03
2.214595D+02           3.831000D-03
1.009096D+02           1.142300D-02
4.840115D+01           2.579200D-02
2.398536D+01           4.481800D-02
1.218250D+01           4.459800D-02
6.242298D+00          -1.117700D-02
3.110944D+00          -1.381340D-01
1.509958D+00          -1.882850D-01
7.108450D-01          -1.073990D-01
2.731900D-01           4.448630D-01
1.042330D-01           6.402390D-01
3.829100D-02           6.445700D-02
P   16   1.00
1.774569D+04           3.000000D-06
4.200721D+03           2.900000D-05
1.364429D+03           1.650000D-04
5.220806D+02           7.340000D-04
2.214595D+02           2.626000D-03
1.009096D+02           7.725000D-03
4.840115D+01           1.773300D-02
2.398536D+01           3.005500D-02
1.218250D+01           3.109400D-02
6.242298D+00          -1.004800D-02
3.110944D+00          -8.830600D-02
1.509958D+00          -1.298240D-01
7.108450D-01          -7.693700D-02
2.731900D-01           2.126610D-01
1.042330D-01           5.730610D-01
3.829100D-02           3.696510D-01
P   1   1.00
3.829100D-02           1.000000D+00
D   8   1.00
1.133440D+02           3.530000D-03
3.364140D+01           2.578400D-02
1.233100D+01           9.911900D-02
4.994780D+00           2.390730D-01
2.072800D+00           3.571990D-01
8.307530D-01           3.621880D-01
3.091780D-01           2.364610D-01
1.001300D-01           6.011800D-02
D   8   1.00
1.133440D+02          -3.890000D-03
3.364140D+01          -2.844200D-02
1.233100D+01          -1.124290D-01
4.994780D+00          -2.742570D-01
2.072800D+00          -3.155460D-01
8.307530D-01           5.710900D-02
3.091780D-01           5.636040D-01
1.001300D-01           3.846370D-01
D   1   1.00
1.001300D-01           1.000000D+00
F   2   1.00
3.224300D+00           4.222490D-01
7.758000D-01           7.714680D-01
****
$end


--------------------------------------------------------------
 Adding empirical dispersion correction 
 ----------------------------------------------------------------
 Doing -D3(BJ) with
 s6  =   1.00000
 s8  =   1.98890
 a1  =   0.39810
 a2  =   4.42110
 -D3 energy without 3body term =     -0.2228710491 hartrees
 ----------------------------------------------------------------
             Standard Nuclear Orientation (Angstroms)
    I     Atom           X                Y                Z
 ----------------------------------------------------------------
    1      C       2.9303425000    -0.7242850000    -2.6731035000
    2      C       3.9992191000    -0.5850099000    -3.5601603000
    3      C       5.2045850000    -1.2137594000    -3.2198979000
    4      C       5.3068195000    -1.9838605000    -2.0451423000
    5      C       4.2427145000    -2.1066318000    -1.1798067000
    6      C       3.0647346000    -1.4659235000    -1.5013497000
    7      H       3.8992955000     0.0166837000    -4.4555088000
    8      O       1.7265678000    -0.1719487000    -2.8772568000
    9      C       6.4861892000    -0.9977231000    -3.8697084000
   10      O       7.0884012000    -2.0156430000    -4.1951229000
   11      N       7.1576429000     0.0160303000    -3.2322035000
   12      H       6.6486635000     0.8972163000    -3.0689503000
   13      C       7.8703488000    -0.0124467000    -0.6509102000
   14      H       8.4309243000     0.9057121000    -0.3806801000
   15      H       8.3511250000    -0.8244190000    -0.0336479000
   16      C       6.4187163000     0.1225056000    -0.0330931000
   17      H       6.0249882000    -0.8716068000     0.2788247000
   18      H       5.7474385000     0.5305311000    -0.8065976000
   19      N       6.3170709000     1.0854197000     1.1036063000
   20      H       7.1205313000     1.7323640000     1.2572669000
   21      C       5.0531938000     1.7426002000     3.1609552000
   22      H       4.5074634000     1.2973704000     4.0220428000
   23      H       5.8882563000     2.3119334000     3.6433653000
   24      C       5.6946221000     0.5972972000     2.3467381000
   25      H       6.4651328000     0.0963666000     2.9861587000
   26      H       4.8979555000    -0.1443502000     2.1340787000
   27      C       4.1884466000     2.8187546000     2.4083118000
   28      H       3.5677251000     3.4243531000     3.1051487000
   29      H       5.0056291000     3.5111381000     2.1532562000
   30      C       3.5516625000     2.6703555000     0.9843097000
   31      H       3.9563118000     3.5232007000     0.3804963000
   32      N       2.1122155000     2.8943225000     0.9417137000
   33      H       1.7517652000     3.7710501000     1.3543859000
   34      C       1.2570540000     2.1436122000     0.0692712000
   35      O       1.7589619000     1.0843695000    -0.5883094000
   36      C      -0.0186452000     2.5315129000    -0.1418610000
   37      H      -0.3704643000     3.4152845000     0.4066958000
   38      C      -2.4440897000     2.2658252000    -0.9427817000
   39      H      -2.7990020000     1.7157664000    -0.0122352000
   40      H      -2.6259474000     3.3340269000    -0.7021975000
   41      C      -3.3065279000     1.8552520000    -2.0988368000
   42      O      -3.3183949000     2.5442154000    -3.1047192000
   43      N      -4.0449636000     0.7198148000    -2.0162375000
   44      C      -4.9608702000     0.2298445000    -3.0279930000
   45      H      -3.9628593000     0.1597033000    -1.1654428000
   46      C      -6.3235262000     0.0074782000    -2.3586158000
   47      H      -4.5845106000    -0.7503960000    -3.3949467000
   48      H      -5.0427887000     0.9185396000    -3.8973442000
   49      C      -6.9370753000     1.3415524000    -1.9002910000
   50      H      -7.0256635000    -0.5074032000    -3.0487286000
   51      H      -6.1473267000    -0.6642479000    -1.4936872000
   52      C      -8.1379747000     1.1755916000    -0.9449917000
   53      H      -7.2608793000     1.8918356000    -2.8101595000
   54      H      -6.1831732000     1.9790536000    -1.3980568000
   55      H      -8.5802354000     2.1786690000    -0.7677799000
   56      H      -8.9174955000     0.5529192000    -1.4354224000
   57      C      -5.0129344000    -1.7632609000     1.1306589000
   58      C      -3.7201174000    -2.5320728000    -0.8825417000
   59      O      -5.9890008000    -2.3759590000     0.7197373000
   60      C      -3.7417829000    -1.8388968000     0.3555519000
   61      C      -2.5825384000    -2.5099940000    -1.6956351000
   62      C      -2.5792049000    -1.1426703000     0.7645493000
   63      C      -1.4751991000    -1.7820341000    -1.2809348000
   64      C      -1.4713978000    -1.1080964000    -0.0625755000
   65      H      -2.5021923000    -0.5882620000     1.6825361000
   66      O      -0.3556062000    -1.6876593000    -2.0054180000
   67      C      -0.9671809000     1.9110295000    -1.1391375000
   68      O      -0.6869716000     0.9194721000    -1.8369596000
   69      H       4.3634234000    -2.6554320000    -0.2546784000
   70      O       2.0053892000    -1.5132048000    -0.7073070000
   71      H      -2.5711896000    -3.0227551000    -2.6495842000
   72      O      -0.3476676000    -0.4338846000     0.2562476000
   73      Fe      0.7026113000    -0.3028760000    -1.2981726000
   74      N      -7.8002476000     0.5803686000     0.3648792000
   75      H      -7.5446369000    -0.4232666000     0.2448068000
   76      N      -5.1368919000    -0.9250819000     2.2020053000
   77      H      -4.3347650000    -0.3969927000     2.5602354000
   78      C      -6.4048642000    -0.5972723000     2.8167913000
   79      H      -7.2412004000    -1.1979054000     2.4045843000
   80      H      -6.3468564000    -0.8045892000     3.9066918000
   81      C      -6.6879099000     0.8988367000     2.5832719000
   82      H      -7.6452316000     1.1744202000     3.0708820000
   83      H      -5.8761200000     1.4910658000     3.0650527000
   84      C      -6.7355411000     1.2965111000     1.0913301000
   85      H      -6.9138536000     2.3934242000     1.0422989000
   86      H      -5.7459289000     1.0887816000     0.6254528000
   87      H      -4.5924929000    -3.0588912000    -1.2446390000
   88      H       6.2481952000    -2.4359953000    -1.7589088000
   89      H       3.8734023000     1.7669011000     0.4347970000
   90      C       8.1698328000    -0.3515123000    -2.2180981000
   91      H       9.1598571000     0.0666988000    -2.5409801000
   92      H       8.2853762000    -1.4540013000    -2.2424226000
 ----------------------------------------------------------------
 Nuclear Repulsion Energy =        7575.95735711 hartrees
 There are      194 alpha and      189 beta electrons
 Requested basis set is non-standard
 There are 432 shells and 930 basis functions

 Total QAlloc Memory Limit   8000 MB
 Mega-Array Size       188 MB
 MEM_STATIC part       192 MB

 -----------------------------------------------------------------------
                STARTING GEOMETRY OPTIMIZER USING LIBOPT3
                by Peter F. McLaughlin, Yu Zhang, Evgeny Epifanovsky
 -----------------------------------------------------------------------

              Initial Energy and Gradient Calculation
   -- Checking Topology for Ill-Behaving Coordinates --

 -------------------------------------------
   Coordinate       |  Removed | Additions 
 -------------------------------------------
	Bonds                     0          0
	Angles                    3          0
	Torsions                  6          6
	Co-Linear Type5s          0          6
	Co-Linear Type6s          0          6
 -------------------------------------------

 ** Ill-Behaving Topology Definitions (No action needed.) **

  Ill-Defined Angles Removed: 
   8  73  72,  35  73  66,  68  73  70

  Ill-Defined Torsions Removed: 
   1   8  73  72,   6  70  73  68,  34  35  73  66,  63  66  73  35,  64  72  73   8
  67  68  73  70

     Done Checking Topology
 Adding empirical dispersion correction 
 ----------------------------------------------------------------
 Doing -D3(BJ) with
 s6  =   1.00000
 s8  =   1.98890
 a1  =   0.39810
 a2  =   4.42110
 -D3 energy without 3body term =     -0.2228710491 hartrees
 ----------------------------------------------------------------
             Standard Nuclear Orientation (Angstroms)
    I     Atom           X                Y                Z
 ----------------------------------------------------------------
    1      C       2.9303425000    -0.7242850000    -2.6731035000
    2      C       3.9992191000    -0.5850099000    -3.5601603000
    3      C       5.2045850000    -1.2137594000    -3.2198979000
    4      C       5.3068195000    -1.9838605000    -2.0451423000
    5      C       4.2427145000    -2.1066318000    -1.1798067000
    6      C       3.0647346000    -1.4659235000    -1.5013497000
    7      H       3.8992955000     0.0166837000    -4.4555088000
    8      O       1.7265678000    -0.1719487000    -2.8772568000
    9      C       6.4861892000    -0.9977231000    -3.8697084000
   10      O       7.0884012000    -2.0156430000    -4.1951229000
   11      N       7.1576429000     0.0160303000    -3.2322035000
   12      H       6.6486635000     0.8972163000    -3.0689503000
   13      C       7.8703488000    -0.0124467000    -0.6509102000
   14      H       8.4309243000     0.9057121000    -0.3806801000
   15      H       8.3511250000    -0.8244190000    -0.0336479000
   16      C       6.4187163000     0.1225056000    -0.0330931000
   17      H       6.0249882000    -0.8716068000     0.2788247000
   18      H       5.7474385000     0.5305311000    -0.8065976000
   19      N       6.3170709000     1.0854197000     1.1036063000
   20      H       7.1205313000     1.7323640000     1.2572669000
   21      C       5.0531938000     1.7426002000     3.1609552000
   22      H       4.5074634000     1.2973704000     4.0220428000
   23      H       5.8882563000     2.3119334000     3.6433653000
   24      C       5.6946221000     0.5972972000     2.3467381000
   25      H       6.4651328000     0.0963666000     2.9861587000
   26      H       4.8979555000    -0.1443502000     2.1340787000
   27      C       4.1884466000     2.8187546000     2.4083118000
   28      H       3.5677251000     3.4243531000     3.1051487000
   29      H       5.0056291000     3.5111381000     2.1532562000
   30      C       3.5516625000     2.6703555000     0.9843097000
   31      H       3.9563118000     3.5232007000     0.3804963000
   32      N       2.1122155000     2.8943225000     0.9417137000
   33      H       1.7517652000     3.7710501000     1.3543859000
   34      C       1.2570540000     2.1436122000     0.0692712000
   35      O       1.7589619000     1.0843695000    -0.5883094000
   36      C      -0.0186452000     2.5315129000    -0.1418610000
   37      H      -0.3704643000     3.4152845000     0.4066958000
   38      C      -2.4440897000     2.2658252000    -0.9427817000
   39      H      -2.7990020000     1.7157664000    -0.0122352000
   40      H      -2.6259474000     3.3340269000    -0.7021975000
   41      C      -3.3065279000     1.8552520000    -2.0988368000
   42      O      -3.3183949000     2.5442154000    -3.1047192000
   43      N      -4.0449636000     0.7198148000    -2.0162375000
   44      C      -4.9608702000     0.2298445000    -3.0279930000
   45      H      -3.9628593000     0.1597033000    -1.1654428000
   46      C      -6.3235262000     0.0074782000    -2.3586158000
   47      H      -4.5845106000    -0.7503960000    -3.3949467000
   48      H      -5.0427887000     0.9185396000    -3.8973442000
   49      C      -6.9370753000     1.3415524000    -1.9002910000
   50      H      -7.0256635000    -0.5074032000    -3.0487286000
   51      H      -6.1473267000    -0.6642479000    -1.4936872000
   52      C      -8.1379747000     1.1755916000    -0.9449917000
   53      H      -7.2608793000     1.8918356000    -2.8101595000
   54      H      -6.1831732000     1.9790536000    -1.3980568000
   55      H      -8.5802354000     2.1786690000    -0.7677799000
   56      H      -8.9174955000     0.5529192000    -1.4354224000
   57      C      -5.0129344000    -1.7632609000     1.1306589000
   58      C      -3.7201174000    -2.5320728000    -0.8825417000
   59      O      -5.9890008000    -2.3759590000     0.7197373000
   60      C      -3.7417829000    -1.8388968000     0.3555519000
   61      C      -2.5825384000    -2.5099940000    -1.6956351000
   62      C      -2.5792049000    -1.1426703000     0.7645493000
   63      C      -1.4751991000    -1.7820341000    -1.2809348000
   64      C      -1.4713978000    -1.1080964000    -0.0625755000
   65      H      -2.5021923000    -0.5882620000     1.6825361000
   66      O      -0.3556062000    -1.6876593000    -2.0054180000
   67      C      -0.9671809000     1.9110295000    -1.1391375000
   68      O      -0.6869716000     0.9194721000    -1.8369596000
   69      H       4.3634234000    -2.6554320000    -0.2546784000
   70      O       2.0053892000    -1.5132048000    -0.7073070000
   71      H      -2.5711896000    -3.0227551000    -2.6495842000
   72      O      -0.3476676000    -0.4338846000     0.2562476000
   73      Fe      0.7026113000    -0.3028760000    -1.2981726000
   74      N      -7.8002476000     0.5803686000     0.3648792000
   75      H      -7.5446369000    -0.4232666000     0.2448068000
   76      N      -5.1368919000    -0.9250819000     2.2020053000
   77      H      -4.3347650000    -0.3969927000     2.5602354000
   78      C      -6.4048642000    -0.5972723000     2.8167913000
   79      H      -7.2412004000    -1.1979054000     2.4045843000
   80      H      -6.3468564000    -0.8045892000     3.9066918000
   81      C      -6.6879099000     0.8988367000     2.5832719000
   82      H      -7.6452316000     1.1744202000     3.0708820000
   83      H      -5.8761200000     1.4910658000     3.0650527000
   84      C      -6.7355411000     1.2965111000     1.0913301000
   85      H      -6.9138536000     2.3934242000     1.0422989000
   86      H      -5.7459289000     1.0887816000     0.6254528000
   87      H      -4.5924929000    -3.0588912000    -1.2446390000
   88      H       6.2481952000    -2.4359953000    -1.7589088000
   89      H       3.8734023000     1.7669011000     0.4347970000
   90      C       8.1698328000    -0.3515123000    -2.2180981000
   91      H       9.1598571000     0.0666988000    -2.5409801000
   92      H       8.2853762000    -1.4540013000    -2.2424226000
 ----------------------------------------------------------------
 Nuclear Repulsion Energy =        7575.95735711 hartrees
 There are      194 alpha and      189 beta electrons
 Using C-PCM dielectric factor f(eps) = (eps-1)/eps = 0.987243
No default van der Waals radius is available for Z = 26
	Found R = 2.4400 A in the $van_der_waals section
 Discretize the solute cavity surface with Lebedev spheres
	Using 110 Lebedev grid points for each H atom
	Using 194 Lebedev grid points for other atoms
	Atomic van der Waals radii (Bondi set) will be scaled by 1.20
 Using smooth SwiG surface discretization
 Remove points where switching function is < 1.0e-08
 Keep 5422 surface tesserae and discard 8814 interior tesserae
 Molecular Surface Area = 658.449 Angst**2

 Requested basis set is non-standard
 There are 432 shells and 930 basis functions
 A cutoff of  1.0D-12 yielded  58429 shell pairs
 There are    252161 function pairs (    279011 Cartesian)
 Smallest overlap matrix eigenvalue = 1.41E-04

 Scale SEOQF with 1.000000e-02/1.000000e-01/1.000000e-01

 Standard Electronic Orientation quadrupole field applied
 Nucleus-field energy     =    -0.0000000673 hartrees
 ================ Generating on-the-fly SAD Guess ================
 Attempting to make child job directory: /scratch/qchem_scratch/qchem194028//Frg1/
 Attempting to make child job directory: /scratch/qchem_scratch/qchem194028//Frg2/
 Attempting to make child job directory: /scratch/qchem_scratch/qchem194028//Frg3/
 Attempting to make child job directory: /scratch/qchem_scratch/qchem194028//Frg4/
 Attempting to make child job directory: /scratch/qchem_scratch/qchem194028//Frg5/
 Creating input file /scratch/qchem_scratch/qchem194028/Frg1.input
 using default PutDataFrgm: nothing
 calling putenv with: QCSCRATCH=/scratch/qchem_scratch/qchem194028/ 
 Spawning Job For Fragment 0
 Done Job For Fragment 0
 calling putenv with: QCSCRATCH=/scratch/qchem_scratch 
 calling putenv with: QCTHREADS=16 
 Creating input file /scratch/qchem_scratch/qchem194028/Frg2.input
 using default PutDataFrgm: nothing
 calling putenv with: QCSCRATCH=/scratch/qchem_scratch/qchem194028/ 
 Spawning Job For Fragment 1
 Done Job For Fragment 1
 calling putenv with: QCSCRATCH=/scratch/qchem_scratch 
 calling putenv with: QCTHREADS=16 
 Creating input file /scratch/qchem_scratch/qchem194028/Frg3.input
 using default PutDataFrgm: nothing
 calling putenv with: QCSCRATCH=/scratch/qchem_scratch/qchem194028/ 
 Spawning Job For Fragment 2
 Done Job For Fragment 2
 calling putenv with: QCSCRATCH=/scratch/qchem_scratch 
 calling putenv with: QCTHREADS=16 
 Creating input file /scratch/qchem_scratch/qchem194028/Frg4.input
 using default PutDataFrgm: nothing
 calling putenv with: QCSCRATCH=/scratch/qchem_scratch/qchem194028/ 
 Spawning Job For Fragment 3
 Done Job For Fragment 3
 calling putenv with: QCSCRATCH=/scratch/qchem_scratch 
 calling putenv with: QCTHREADS=16 
 Creating input file /scratch/qchem_scratch/qchem194028/Frg5.input
 using default PutDataFrgm: nothing
 calling putenv with: QCSCRATCH=/scratch/qchem_scratch/qchem194028/ 
 Spawning Job For Fragment 4
 Done Job For Fragment 4
 calling putenv with: QCSCRATCH=/scratch/qchem_scratch 
 calling putenv with: QCTHREADS=16 
 Time for running child jobs:  CPU 0.03 s  wall 108.47 s
 ============= Method Specific SAD Guess Constructed =============
 Guess from on-the-fly superposition of atomic densities
 Warning: Energy on first SCF cycle will be non-variational

 -----------------------------------------------------------------------
  General SCF calculation program by
  Eric Jon Sundstrom, Paul Horn, Yuezhi Mao, Dmitri Zuev, Alec White,
  David Stuck, Shaama M.S., Shane Yost, Joonho Lee, David Small,
  Daniel Levine, Susi Lehtola, Hugh Burton, Evgeny Epifanovsky,
  Bang C. Huynh
 -----------------------------------------------------------------------
 Exchange:     0.2000 Hartree-Fock + 0.0800 Slater + 0.7200 B88
 Correlation:  0.1900 VWN1RPA + 0.8100 LYP
 Using SG-1 standard quadrature grid
 Dispersion:   Grimme D3
 using 16 threads for integral computing
 -------------------------------------------------------
 OpenMP Integral computing Module                
 Release: version 1.0, May 2013, Q-Chem Inc. Pittsburgh 
 -------------------------------------------------------
 C-PCM solvent model [f = (eps-1)/eps], solve by matrix inversion
 A unrestricted SCF calculation will be
 performed using DIIS
 SCF converges when DIIS error is below 1.0e-08
 ---------------------------------------
  Cycle       Energy         DIIS error
 ---------------------------------------
    1   -3572.9192656720      1.46e-02  
    2   -3552.1077731023      1.66e-03  
    3   -3551.0989860655      2.48e-03  
    4   -3553.1766284351      6.84e-04  
    5   -3553.3314166860      3.33e-04  
    6   -3553.3507038408      2.59e-04  
    7   -3553.3693751875      6.27e-05  
    8   -3553.3707445189      2.54e-05  
    9   -3553.3710364541      1.22e-05  
   10   -3553.3711030424      5.30e-06  
   11   -3553.3711158937      2.46e-06  
   12   -3553.3711188120      9.31e-07  
   13   -3553.3711194094      4.84e-07  
   14   -3553.3711195535      2.08e-07  
   15   -3553.3711196005      1.30e-07  
   16   -3553.3711196179      6.73e-08  
   17   -3553.3711196228      2.73e-08  
   18   -3553.3711196239      1.76e-08  
   19   -3553.3711196240      9.80e-09  Convergence criterion met
 ---------------------------------------
 SCF time:   CPU 64799.11s  wall 4702.00s 
<S^2> =          8.758893879

************** Final PCM Free Energy Summary **************
 G_electrostatic  =      -0.30468018 hartree =    -191.18969938 kcal/mol
 G_cavitation     =       0.00000000 hartree =       0.00000000 kcal/mol
 G_dispersion     =       0.00000000 hartree =       0.00000000 kcal/mol
 G_repulsion      =       0.00000000 hartree =       0.00000000 kcal/mol
 --------------------------------------------------
 Non-electrostatic Free Energy =       0.00000000 hartree =       0.00000000 kcal/mol
 Total                         =      -0.30468018 hartree =    -191.18969938 kcal/mol
 --------------------------------------------------
 SCF Energy (H0 + V/2)                       =   -3553.37111962 
 Solute Internal Energy (H0)                 =   -3553.06643944 
 Total Free Energy (H0 + V/2 + non-elec)     =   -3553.37111962 hartree
                                             = -2229774.03154196 kcal/mol
***********************************************************

 SCF   energy in the final basis set =    -3553.3711196240
 Total energy in the final basis set =    -3553.3711196240
 
 --------------------------------------------------------------
 
                    Orbital Energies (a.u.)
 --------------------------------------------------------------
 
 Alpha MOs
 -- Occupied --
******** -30.0676 -25.9202 -25.9179 -25.9175 -19.1219 -19.1081 -19.0958
-19.0913 -19.0896 -19.0752 -19.0716 -19.0692 -19.0659 -14.3394 -14.3386
-14.3347 -14.3295 -14.3020 -14.2968 -10.2736 -10.2720 -10.2714 -10.2670
-10.2664 -10.2233 -10.2111 -10.2109 -10.2087 -10.2019 -10.2010 -10.2008
-10.1990 -10.1984 -10.1972 -10.1916 -10.1912 -10.1893 -10.1859 -10.1793
-10.1784 -10.1770 -10.1755 -10.1737 -10.1691 -10.1682 -10.1643 -10.1608
-10.1579 -10.1530 -10.1524 -10.1509 -10.1463  -3.5600  -2.3377  -2.3347
 -2.3323  -1.0433  -1.0369  -1.0278  -1.0269  -0.9928  -0.9851  -0.9805
 -0.9425  -0.9393  -0.9104  -0.9086  -0.9002  -0.8892  -0.8830  -0.8720
 -0.8211  -0.8167  -0.7810  -0.7702  -0.7627  -0.7526  -0.7426  -0.7285
 -0.7231  -0.7160  -0.7045  -0.6980  -0.6957  -0.6850  -0.6646  -0.6537
 -0.6266  -0.6170  -0.6014  -0.5993  -0.5881  -0.5847  -0.5823  -0.5744
 -0.5676  -0.5659  -0.5594  -0.5569  -0.5519  -0.5500  -0.5404  -0.5087
 -0.5051  -0.4974  -0.4875  -0.4838  -0.4773  -0.4731  -0.4698  -0.4674
 -0.4618  -0.4605  -0.4585  -0.4559  -0.4544  -0.4535  -0.4459  -0.4443
 -0.4425  -0.4406  -0.4380  -0.4350  -0.4326  -0.4323  -0.4288  -0.4182
 -0.4180  -0.4140  -0.4114  -0.4098  -0.4071  -0.4063  -0.4035  -0.3984
 -0.3957  -0.3922  -0.3885  -0.3872  -0.3871  -0.3823  -0.3793  -0.3757
 -0.3731  -0.3672  -0.3646  -0.3630  -0.3616  -0.3603  -0.3542  -0.3539
 -0.3520  -0.3483  -0.3471  -0.3434  -0.3400  -0.3379  -0.3354  -0.3334
 -0.3294  -0.3268  -0.3252  -0.3213  -0.3196  -0.3182  -0.3167  -0.3146
 -0.3125  -0.2947  -0.2934  -0.2917  -0.2905  -0.2848  -0.2768  -0.2605
 -0.2572  -0.2512  -0.2448  -0.2447  -0.2433  -0.2422  -0.2390  -0.2365
 -0.2319  -0.2125  -0.2088  -0.2029  -0.1933  -0.1918  -0.1666  -0.1627
 -0.1594  -0.1477
 -- Virtual --
 -0.0268  -0.0205  -0.0089   0.0235   0.0286   0.0317   0.0423   0.0458
  0.0552   0.0561   0.0650   0.0660   0.0715   0.0742   0.0776   0.0802
  0.0829   0.0873   0.0899   0.0944   0.0965   0.0994   0.1014   0.1031
  0.1035   0.1092   0.1110   0.1173   0.1219   0.1227   0.1263   0.1271
  0.1335   0.1338   0.1367   0.1412   0.1422   0.1472   0.1486   0.1502
  0.1570   0.1599   0.1604   0.1639   0.1646   0.1663   0.1733   0.1749
  0.1781   0.1786   0.1878   0.1893   0.1912   0.1943   0.1958   0.1971
  0.1975   0.2064   0.2095   0.2140   0.2152   0.2192   0.2211   0.2240
  0.2299   0.2360   0.2385   0.2449   0.2470   0.2498   0.2535   0.2588
  0.2632   0.2654   0.2706   0.2752   0.2779   0.2819   0.2853   0.2879
  0.2907   0.2925   0.2975   0.2976   0.3048   0.3119   0.3194   0.3201
  0.3220   0.3282   0.3320   0.3357   0.3467   0.3641   0.3668   0.3710
  0.3739   0.3822   0.3850   0.3975   0.3999   0.4063   0.4101   0.4144
  0.4178   0.4199   0.4218   0.4255   0.4311   0.4349   0.4383   0.4418
  0.4442   0.4471   0.4496   0.4507   0.4553   0.4568   0.4635   0.4642
  0.4666   0.4699   0.4719   0.4765   0.4790   0.4822   0.4838   0.4872
  0.4933   0.4988   0.4999   0.5022   0.5064   0.5085   0.5128   0.5177
  0.5192   0.5209   0.5246   0.5260   0.5289   0.5347   0.5352   0.5394
  0.5425   0.5495   0.5510   0.5553   0.5580   0.5604   0.5645   0.5658
  0.5679   0.5692   0.5724   0.5742   0.5790   0.5811   0.5845   0.5873
  0.5897   0.5927   0.5936   0.5986   0.5998   0.6043   0.6067   0.6106
  0.6164   0.6178   0.6204   0.6235   0.6259   0.6272   0.6333   0.6339
  0.6363   0.6391   0.6415   0.6431   0.6446   0.6458   0.6474   0.6503
  0.6546   0.6550   0.6569   0.6621   0.6630   0.6646   0.6659   0.6679
  0.6708   0.6719   0.6747   0.6775   0.6782   0.6806   0.6819   0.6864
  0.6873   0.6895   0.6926   0.6937   0.6971   0.6995   0.7027   0.7035
  0.7066   0.7097   0.7124   0.7155   0.7169   0.7178   0.7213   0.7231
  0.7262   0.7313   0.7348   0.7365   0.7424   0.7434   0.7482   0.7528
  0.7546   0.7561   0.7603   0.7620   0.7685   0.7706   0.7777   0.7830
  0.7900   0.7935   0.7959   0.8025   0.8093   0.8176   0.8185   0.8236
  0.8277   0.8295   0.8345   0.8415   0.8454   0.8488   0.8594   0.8649
  0.8697   0.8704   0.8764   0.8808   0.8819   0.8894   0.8940   0.8959
  0.8987   0.9025   0.9059   0.9079   0.9146   0.9242   0.9246   0.9262
  0.9304   0.9379   0.9409   0.9442   0.9495   0.9585   0.9608   0.9677
  0.9742   0.9749   0.9802   0.9874   0.9928   0.9962   0.9986   1.0021
  1.0075   1.0144   1.0192   1.0213   1.0280   1.0294   1.0364   1.0400
  1.0469   1.0483   1.0500   1.0535   1.0636   1.0728   1.0770   1.0805
  1.0822   1.0872   1.0912   1.0997   1.1028   1.1070   1.1104   1.1120
  1.1161   1.1213   1.1240   1.1285   1.1346   1.1385   1.1447   1.1478
  1.1498   1.1517   1.1583   1.1622   1.1674   1.1722   1.1747   1.1841
  1.1866   1.1920   1.1953   1.2019   1.2060   1.2098   1.2156   1.2181
  1.2238   1.2277   1.2300   1.2319   1.2366   1.2391   1.2450   1.2553
  1.2678   1.2693   1.2741   1.2749   1.2804   1.2871   1.2904   1.2945
  1.3008   1.3034   1.3098   1.3142   1.3173   1.3206   1.3271   1.3311
  1.3332   1.3444   1.3505   1.3531   1.3595   1.3654   1.3699   1.3731
  1.3769   1.3805   1.3834   1.3960   1.3996   1.4047   1.4090   1.4166
  1.4206   1.4286   1.4342   1.4399   1.4423   1.4456   1.4504   1.4557
  1.4592   1.4628   1.4672   1.4769   1.4817   1.4845   1.4869   1.4899
  1.4997   1.5054   1.5069   1.5074   1.5113   1.5128   1.5237   1.5261
  1.5337   1.5376   1.5401   1.5440   1.5467   1.5519   1.5544   1.5553
  1.5634   1.5662   1.5708   1.5730   1.5767   1.5808   1.5817   1.5883
  1.5910   1.5961   1.5982   1.6002   1.6075   1.6101   1.6150   1.6166
  1.6172   1.6217   1.6227   1.6275   1.6285   1.6304   1.6350   1.6367
  1.6383   1.6435   1.6490   1.6497   1.6509   1.6532   1.6569   1.6573
  1.6606   1.6649   1.6667   1.6699   1.6734   1.6746   1.6779   1.6789
  1.6814   1.6821   1.6860   1.6913   1.6930   1.6942   1.7005   1.7038
  1.7048   1.7072   1.7115   1.7150   1.7190   1.7208   1.7237   1.7266
  1.7313   1.7345   1.7381   1.7402   1.7421   1.7449   1.7452   1.7492
  1.7522   1.7556   1.7593   1.7647   1.7661   1.7707   1.7734   1.7773
  1.7780   1.7809   1.7844   1.7889   1.7903   1.7913   1.7946   1.7970
  1.8006   1.8035   1.8097   1.8138   1.8175   1.8190   1.8248   1.8277
  1.8293   1.8328   1.8380   1.8395   1.8413   1.8468   1.8485   1.8550
  1.8577   1.8590   1.8621   1.8652   1.8680   1.8732   1.8769   1.8801
  1.8878   1.8914   1.8925   1.8948   1.9022   1.9080   1.9099   1.9115
  1.9184   1.9265   1.9287   1.9306   1.9354   1.9378   1.9415   1.9471
  1.9524   1.9572   1.9599   1.9612   1.9653   1.9699   1.9713   1.9751
  1.9805   1.9864   1.9910   1.9957   2.0026   2.0038   2.0104   2.0141
  2.0181   2.0237   2.0279   2.0343   2.0370   2.0442   2.0500   2.0519
  2.0580   2.0626   2.0701   2.0731   2.0754   2.0816   2.0850   2.0887
  2.0937   2.0967   2.1025   2.1117   2.1169   2.1200   2.1224   2.1302
  2.1329   2.1415   2.1467   2.1538   2.1572   2.1579   2.1676   2.1701
  2.1769   2.1858   2.1876   2.1933   2.1977   2.1994   2.2037   2.2088
  2.2108   2.2180   2.2215   2.2287   2.2303   2.2323   2.2372   2.2459
  2.2474   2.2509   2.2585   2.2606   2.2643   2.2667   2.2722   2.2779
  2.2822   2.2961   2.3010   2.3032   2.3135   2.3170   2.3228   2.3264
  2.3403   2.3499   2.3528   2.3618   2.3692   2.3755   2.3793   2.3835
  2.3892   2.4020   2.4085   2.4127   2.4149   2.4202   2.4294   2.4310
  2.4424   2.4450   2.4460   2.4527   2.4538   2.4549   2.4646   2.4677
  2.4690   2.4766   2.4814   2.4877   2.4896   2.4934   2.4976   2.5098
  2.5174   2.5215   2.5241   2.5291   2.5303   2.5371   2.5527   2.5592
  2.5707   2.5752   2.5857   2.5961   2.5985   2.6006   2.6050   2.6178
  2.6193   2.6349   2.6392   2.6432   2.6481   2.6535   2.6607   2.6627
  2.6735   2.6791   2.6928   2.7035   2.7069   2.7090   2.7138   2.7242
  2.7295   2.7327   2.7375   2.7502   2.7552   2.7599   2.7666   2.7754
  2.7786   2.7835   2.7850   2.7880   2.7905   2.7999   2.8029   2.8133
  2.8300   2.8368   2.8422   2.8496   2.8614   2.8674   2.8829   2.9014
  2.9152   2.9241   2.9448   2.9487   2.9591   2.9705   2.9870   3.0009
  3.0283   3.0519   3.0537   3.0797   3.0867   3.0992   3.1119   3.1194
  3.1223   3.1540   3.1588   3.1670   3.1767   3.2006   3.2127   3.2280
  3.2512   3.2790   3.3042   3.3446   3.3595   3.3921   3.4131   3.4255
  3.4431   3.4714   3.4736   3.4971   3.5043   3.5113   3.5202   3.5315
  3.5378   3.5419   3.6035   3.7259   3.7545   3.7880   3.8349   3.8721
 
 Beta MOs
 -- Occupied --
******** -29.9741 -25.8417 -25.8404 -25.8399 -19.1196 -19.1080 -19.0925
-19.0913 -19.0895 -19.0711 -19.0672 -19.0646 -19.0610 -14.3394 -14.3386
-14.3343 -14.3295 -14.3020 -14.2968 -10.2736 -10.2720 -10.2714 -10.2668
-10.2662 -10.2233 -10.2111 -10.2109 -10.2087 -10.2019 -10.2010 -10.2008
-10.1990 -10.1984 -10.1972 -10.1914 -10.1911 -10.1893 -10.1859 -10.1793
-10.1784 -10.1770 -10.1755 -10.1736 -10.1691 -10.1682 -10.1642 -10.1606
-10.1577 -10.1530 -10.1522 -10.1507 -10.1460  -3.3431  -2.1091  -2.1064
 -2.1055  -1.0395  -1.0369  -1.0272  -1.0269  -0.9860  -0.9782  -0.9724
 -0.9330  -0.9292  -0.9104  -0.9086  -0.9001  -0.8872  -0.8830  -0.8720
 -0.8200  -0.8155  -0.7808  -0.7699  -0.7623  -0.7521  -0.7423  -0.7278
 -0.7221  -0.7151  -0.7033  -0.6965  -0.6949  -0.6844  -0.6643  -0.6534
 -0.6263  -0.6168  -0.6003  -0.5983  -0.5870  -0.5833  -0.5813  -0.5738
 -0.5665  -0.5650  -0.5578  -0.5561  -0.5513  -0.5485  -0.5360  -0.5055
 -0.4996  -0.4942  -0.4834  -0.4804  -0.4759  -0.4712  -0.4671  -0.4654
 -0.4594  -0.4564  -0.4548  -0.4524  -0.4494  -0.4478  -0.4440  -0.4422
 -0.4400  -0.4384  -0.4367  -0.4306  -0.4265  -0.4260  -0.4219  -0.4171
 -0.4150  -0.4098  -0.4068  -0.4049  -0.4010  -0.4002  -0.3983  -0.3935
 -0.3914  -0.3880  -0.3870  -0.3851  -0.3829  -0.3753  -0.3739  -0.3703
 -0.3665  -0.3636  -0.3616  -0.3590  -0.3552  -0.3513  -0.3490  -0.3473
 -0.3457  -0.3427  -0.3401  -0.3373  -0.3353  -0.3332  -0.3268  -0.3254
 -0.3193  -0.3184  -0.3174  -0.3141  -0.3084  -0.2965  -0.2946  -0.2916
 -0.2872  -0.2830  -0.2721  -0.2680  -0.2537  -0.2515  -0.2457  -0.2447
 -0.2440  -0.2424  -0.2396  -0.2378  -0.2373  -0.2316  -0.2121  -0.2088
 -0.2008  -0.1917  -0.1898  -0.1660  -0.1508
 -- Virtual --
 -0.0388  -0.0272  -0.0231  -0.0183  -0.0060  -0.0003   0.0261   0.0306
  0.0321   0.0432   0.0489   0.0555   0.0564   0.0612   0.0642   0.0660
  0.0674   0.0723   0.0752   0.0779   0.0810   0.0835   0.0877   0.0905
  0.0958   0.0972   0.0998   0.1023   0.1035   0.1050   0.1096   0.1117
  0.1185   0.1225   0.1230   0.1265   0.1275   0.1339   0.1340   0.1369
  0.1413   0.1425   0.1477   0.1487   0.1504   0.1573   0.1601   0.1608
  0.1641   0.1648   0.1666   0.1735   0.1752   0.1784   0.1788   0.1879
  0.1898   0.1914   0.1947   0.1963   0.1974   0.1980   0.2072   0.2106
  0.2148   0.2161   0.2194   0.2218   0.2244   0.2300   0.2374   0.2389
  0.2453   0.2483   0.2500   0.2554   0.2606   0.2650   0.2656   0.2711
  0.2758   0.2788   0.2822   0.2865   0.2885   0.2915   0.2938   0.2978
  0.2988   0.3062   0.3126   0.3204   0.3218   0.3232   0.3311   0.3349
  0.3383   0.3508   0.3668   0.3697   0.3721   0.3767   0.3857   0.3876
  0.3988   0.4019   0.4077   0.4121   0.4153   0.4184   0.4209   0.4222
  0.4277   0.4345   0.4369   0.4429   0.4435   0.4454   0.4489   0.4501
  0.4521   0.4570   0.4580   0.4654   0.4689   0.4694   0.4722   0.4744
  0.4776   0.4804   0.4847   0.4864   0.4895   0.4938   0.4997   0.5013
  0.5042   0.5071   0.5094   0.5139   0.5182   0.5197   0.5219   0.5251
  0.5270   0.5302   0.5354   0.5361   0.5407   0.5443   0.5502   0.5518
  0.5558   0.5590   0.5614   0.5653   0.5670   0.5682   0.5701   0.5733
  0.5754   0.5799   0.5821   0.5849   0.5878   0.5905   0.5935   0.5949
  0.5992   0.6001   0.6049   0.6071   0.6114   0.6177   0.6184   0.6208
  0.6240   0.6263   0.6281   0.6337   0.6345   0.6367   0.6395   0.6425
  0.6438   0.6451   0.6464   0.6482   0.6510   0.6549   0.6554   0.6571
  0.6624   0.6633   0.6654   0.6667   0.6689   0.6721   0.6722   0.6750
  0.6780   0.6787   0.6818   0.6827   0.6870   0.6882   0.6907   0.6935
  0.6943   0.6979   0.7003   0.7037   0.7047   0.7072   0.7108   0.7133
  0.7162   0.7180   0.7191   0.7230   0.7246   0.7271   0.7319   0.7360
  0.7373   0.7433   0.7449   0.7497   0.7534   0.7564   0.7571   0.7618
  0.7638   0.7699   0.7735   0.7787   0.7838   0.7907   0.7946   0.7965
  0.8059   0.8108   0.8187   0.8238   0.8282   0.8283   0.8341   0.8372
  0.8438   0.8466   0.8553   0.8652   0.8666   0.8702   0.8749   0.8770
  0.8824   0.8831   0.8944   0.8957   0.8977   0.9012   0.9038   0.9095
  0.9126   0.9172   0.9251   0.9280   0.9300   0.9325   0.9413   0.9446
  0.9493   0.9524   0.9592   0.9618   0.9715   0.9760   0.9766   0.9821
  0.9907   0.9944   0.9970   1.0005   1.0038   1.0112   1.0161   1.0219
  1.0220   1.0287   1.0302   1.0382   1.0409   1.0481   1.0499   1.0538
  1.0547   1.0650   1.0733   1.0806   1.0816   1.0848   1.0895   1.0927
  1.1018   1.1049   1.1077   1.1113   1.1144   1.1174   1.1222   1.1253
  1.1301   1.1356   1.1400   1.1465   1.1494   1.1511   1.1557   1.1603
  1.1635   1.1689   1.1731   1.1761   1.1858   1.1893   1.1937   1.1959
  1.2031   1.2064   1.2110   1.2187   1.2200   1.2260   1.2299   1.2325
  1.2351   1.2377   1.2404   1.2470   1.2587   1.2694   1.2717   1.2753
  1.2778   1.2820   1.2889   1.2916   1.2959   1.3028   1.3045   1.3117
  1.3159   1.3200   1.3257   1.3312   1.3333   1.3374   1.3461   1.3530
  1.3571   1.3627   1.3661   1.3722   1.3750   1.3792   1.3818   1.3881
  1.3981   1.4021   1.4081   1.4133   1.4201   1.4214   1.4340   1.4363
  1.4417   1.4448   1.4525   1.4571   1.4595   1.4653   1.4683   1.4695
  1.4782   1.4829   1.4866   1.4903   1.4977   1.5009   1.5076   1.5084
  1.5095   1.5148   1.5207   1.5279   1.5324   1.5355   1.5384   1.5422
  1.5462   1.5500   1.5527   1.5568   1.5589   1.5655   1.5672   1.5720
  1.5758   1.5779   1.5834   1.5893   1.5915   1.5962   1.5995   1.6022
  1.6088   1.6101   1.6128   1.6170   1.6187   1.6214   1.6240   1.6262
  1.6287   1.6302   1.6321   1.6367   1.6388   1.6462   1.6474   1.6498
  1.6512   1.6534   1.6542   1.6587   1.6605   1.6629   1.6665   1.6686
  1.6739   1.6754   1.6769   1.6790   1.6804   1.6824   1.6842   1.6899
  1.6943   1.6956   1.6992   1.7026   1.7058   1.7075   1.7102   1.7127
  1.7167   1.7205   1.7228   1.7259   1.7321   1.7334   1.7351   1.7396
  1.7431   1.7449   1.7487   1.7496   1.7520   1.7574   1.7583   1.7612
  1.7675   1.7684   1.7728   1.7751   1.7780   1.7814   1.7854   1.7868
  1.7897   1.7916   1.7928   1.7969   1.7996   1.8014   1.8045   1.8146
  1.8159   1.8193   1.8223   1.8251   1.8295   1.8312   1.8353   1.8399
  1.8415   1.8419   1.8475   1.8511   1.8565   1.8587   1.8599   1.8645
  1.8695   1.8742   1.8768   1.8779   1.8816   1.8894   1.8933   1.8956
  1.8991   1.9042   1.9090   1.9113   1.9139   1.9209   1.9283   1.9313
  1.9330   1.9369   1.9421   1.9487   1.9495   1.9539   1.9581   1.9618
  1.9650   1.9663   1.9714   1.9732   1.9760   1.9819   1.9876   1.9917
  1.9970   2.0062   2.0080   2.0112   2.0150   2.0197   2.0250   2.0305
  2.0357   2.0398   2.0450   2.0513   2.0524   2.0591   2.0633   2.0719
  2.0745   2.0771   2.0828   2.0861   2.0902   2.0949   2.0989   2.1036
  2.1121   2.1181   2.1207   2.1241   2.1318   2.1341   2.1426   2.1478
  2.1552   2.1578   2.1593   2.1683   2.1723   2.1777   2.1871   2.1892
  2.1950   2.1982   2.2008   2.2078   2.2094   2.2136   2.2187   2.2230
  2.2296   2.2317   2.2331   2.2446   2.2464   2.2482   2.2548   2.2598
  2.2617   2.2669   2.2720   2.2770   2.2828   2.2843   2.2985   2.3020
  2.3057   2.3173   2.3202   2.3236   2.3283   2.3423   2.3535   2.3548
  2.3645   2.3709   2.3788   2.3838   2.3869   2.3905   2.4043   2.4091
  2.4145   2.4169   2.4213   2.4308   2.4316   2.4429   2.4460   2.4464
  2.4530   2.4545   2.4590   2.4655   2.4682   2.4697   2.4806   2.4830
  2.4885   2.4907   2.4946   2.4994   2.5103   2.5192   2.5236   2.5270
  2.5297   2.5336   2.5400   2.5530   2.5660   2.5710   2.5757   2.5863
  2.5982   2.6001   2.6022   2.6079   2.6193   2.6224   2.6364   2.6414
  2.6450   2.6509   2.6569   2.6635   2.6644   2.6787   2.6873   2.7020
  2.7051   2.7104   2.7153   2.7237   2.7283   2.7309   2.7376   2.7439
  2.7525   2.7562   2.7624   2.7701   2.7800   2.7816   2.7846   2.7910
  2.7950   2.8002   2.8063   2.8117   2.8145   2.8318   2.8397   2.8495
  2.8576   2.8681   2.8730   2.8881   2.9124   2.9201   2.9383   2.9455
  2.9527   2.9728   2.9813   2.9991   3.0144   3.0297   3.0535   3.0875
  3.0963   3.1083   3.1145   3.1234   3.1454   3.1600   3.1678   3.1819
  3.1843   3.2093   3.2251   3.2402   3.2805   3.3044   3.3185   3.3389
  3.3587   3.3821   3.4100   3.4275   3.4422   3.4661   3.4724   3.4776
  3.5042   3.5111   3.5163   3.5328   3.5441   3.5459   3.5536   3.6097
  3.7441   3.7707   3.8812   3.9181   3.9616
 --------------------------------------------------------------
 
          Ground-State Mulliken Net Atomic Charges

     Atom                 Charge (a.u.)    Spin (a.u.)
  --------------------------------------------------------
      1 C                     0.156766       0.010347
      2 C                    -0.077698       0.008688
      3 C                    -0.001884       0.006665
      4 C                     0.011296       0.004354
      5 C                    -0.053352       0.012259
      6 C                     0.166171       0.006678
      7 H                    -0.072923       0.000400
      8 O                    -0.478410       0.131924
      9 C                     0.085425      -0.000097
     10 O                    -0.303491       0.000114
     11 N                    -0.143426       0.001185
     12 H                     0.114503      -0.000040
     13 C                    -0.071789       0.000025
     14 H                     0.020324       0.000020
     15 H                     0.024826       0.000004
     16 C                     0.085553       0.000040
     17 H                     0.033181      -0.000066
     18 H                     0.015269       0.000071
     19 N                    -0.279503       0.000000
     20 H                     0.093305      -0.000004
     21 C                    -0.033235       0.000182
     22 H                     0.002212      -0.000004
     23 H                     0.011934       0.000015
     24 C                     0.079650      -0.000000
     25 H                    -0.002684      -0.000000
     26 H                     0.035703       0.000020
     27 C                    -0.022346       0.000290
     28 H                     0.002995       0.000047
     29 H                     0.013080       0.000029
     30 C                     0.083773      -0.000549
     31 H                     0.010469       0.000972
     32 N                    -0.207679       0.014100
     33 H                     0.118569       0.001098
     34 C                     0.248659       0.015713
     35 O                    -0.426128       0.083735
     36 C                    -0.093290       0.018460
     37 H                    -0.041025      -0.000740
     38 C                     0.041528       0.006715
     39 H                     0.062891       0.001718
     40 H                     0.041258      -0.000152
     41 C                     0.090501       0.000244
     42 O                    -0.348373       0.000066
     43 N                    -0.138068       0.000042
     44 C                     0.104174       0.000004
     45 H                     0.143845      -0.000005
     46 C                    -0.044911       0.000020
     47 H                     0.018872      -0.000034
     48 H                     0.024079       0.000004
     49 C                    -0.030726       0.000011
     50 H                     0.006678       0.000004
     51 H                     0.013731       0.000028
     52 C                     0.085958      -0.000002
     53 H                    -0.003887       0.000001
     54 H                     0.013685       0.000021
     55 H                     0.007952       0.000001
     56 H                     0.003373       0.000000
     57 C                     0.174312       0.000148
     58 C                     0.004784       0.002238
     59 O                    -0.346989       0.001460
     60 C                    -0.055776       0.005836
     61 C                    -0.036639       0.009585
     62 C                    -0.054943       0.011489
     63 C                     0.176179       0.006603
     64 C                     0.129788       0.007923
     65 H                    -0.068840       0.000464
     66 O                    -0.452361       0.118704
     67 C                     0.133821       0.017951
     68 O                    -0.315295       0.046134
     69 H                    -0.059435       0.000045
     70 O                    -0.455343       0.144183
     71 H                    -0.054786       0.000161
     72 O                    -0.471964       0.129730
     73 Fe                    0.490176       4.170930
     74 N                    -0.271856       0.000018
     75 H                     0.094903       0.000030
     76 N                    -0.154582       0.000336
     77 H                     0.121437      -0.000015
     78 C                     0.087147      -0.000024
     79 H                     0.028994      -0.000006
     80 H                     0.021327       0.000030
     81 C                    -0.014292       0.000025
     82 H                     0.000495       0.000013
     83 H                     0.009422      -0.000003
     84 C                     0.044964       0.000041
     85 H                     0.021085       0.000001
     86 H                     0.017830      -0.000018
     87 H                    -0.066627       0.000300
     88 H                    -0.062179       0.000258
     89 H                     0.052377       0.000849
     90 C                     0.064910      -0.000047
     91 H                     0.029786       0.000008
     92 H                     0.040811      -0.000000
  --------------------------------------------------------
  Sum of atomic charges =    -2.000000
  Sum of spin   charges =     5.000000

 -----------------------------------------------------------------
                    Cartesian Multipole Moments
 -----------------------------------------------------------------
    Charge (ESU x 10^10)
                -9.6064
    Dipole Moment (Debye)
         X      -2.5851      Y      14.4142      Z      22.8169
       Tot      27.1120
    Quadrupole Moments (Debye-Ang)
        XX    -405.1980     XY      25.4029     YY    -335.5124
        XZ      46.3425     YZ      -3.4736     ZZ    -364.6334
    Octopole Moments (Debye-Ang^2)
       XXX     215.1766    XXY     339.0391    XYY      49.3116
       YYY      63.0319    XXZ     550.9103    XYZ    -187.9938
       YYZ     323.1281    XZZ    -222.1434    YZZ      35.0546
       ZZZ     897.9887
    Hexadecapole Moments (Debye-Ang^3)
      XXXX  -46688.3925   XXXY    1231.4475   XXYY   -8597.9861
      XYYY     361.2491   YYYY   -4971.6110   XXXZ    4311.9865
      XXYZ    -836.5935   XYYZ     774.2253   YYYZ    -575.0168
      XXZZ   -9611.5015   XYZZ     851.7425   YYZZ   -2420.0626
      XZZZ    2223.9099   YZZZ    -871.9606   ZZZZ   -8490.8509
 -----------------------------------------------------------------
 Calculating analytic gradient of the SCF energy
 Gradient of SCF Energy
            1           2           3           4           5           6
    1   0.0434047  -0.0129439  -0.0110893  -0.0107298  -0.0198361   0.0473038
    2  -0.0335172   0.0144817  -0.0006045   0.0042666   0.0211022  -0.0046348
    3   0.0115630   0.0037432   0.0411640   0.0077077  -0.0121707  -0.0305812
            7           8           9          10          11          12
    1   0.0042347   0.0210141   0.0444755  -0.0716422  -0.0502557   0.0218909
    2  -0.0378881  -0.0298331  -0.0495562   0.0895285  -0.0213342  -0.0258807
    3   0.0564793   0.0618887  -0.0397597   0.0584596   0.0111880  -0.0110720
           13          14          15          16          17          18
    1   0.0051053  -0.0097269  -0.0084975  -0.0315461   0.0084088   0.0257711
    2   0.0026039  -0.0194910   0.0119787  -0.0149283   0.0248592  -0.0102457
    3   0.0120752  -0.0021554  -0.0030748  -0.0097769  -0.0057855   0.0296459
           19          20          21          22          23          24
    1   0.0145597  -0.0123872   0.0045149   0.0141838  -0.0102137  -0.0163862
    2   0.0028224  -0.0034071  -0.0046973   0.0118162  -0.0092468  -0.0212041
    3   0.0038016  -0.0021753   0.0073803  -0.0172423  -0.0060251   0.0130527
           25          26          27          28          29          30
    1  -0.0119807   0.0239646  -0.0192902   0.0153165  -0.0171860   0.0193326
    2   0.0109943   0.0231019   0.0118583  -0.0083209  -0.0217252  -0.0177244
    3  -0.0153682   0.0103822   0.0056416  -0.0154755   0.0054350  -0.0224338
           31          32          33          34          35          36
    1  -0.0145678   0.0029657   0.0116983  -0.0710281  -0.0534958   0.0822840
    2  -0.0196840   0.0360668  -0.0244207   0.0186453  -0.0218774  -0.0050879
    3   0.0127571   0.0042821  -0.0099100  -0.0073311  -0.0106463   0.0369765
           37          38          39          40          41          42
    1   0.0179495  -0.0038030   0.0020756   0.0038317  -0.0116661   0.0068231
    2  -0.0335779   0.0038344   0.0130230  -0.0347656   0.0602797  -0.0949468
    3  -0.0214273   0.0007651  -0.0202406  -0.0072253  -0.0856972   0.1259600
           43          44          45          46          47          48
    1   0.0075357   0.0052344  -0.0062499   0.0096407  -0.0126656   0.0032582
    2  -0.0050670  -0.0020947   0.0351443  -0.0180328   0.0325620  -0.0196743
    3   0.0241208  -0.0123056  -0.0439969  -0.0036823   0.0133408   0.0261265
           49          50          51          52          53          54
    1   0.0061984   0.0159253  -0.0046623  -0.0194749   0.0084873  -0.0201055
    2   0.0141784   0.0121184   0.0173823   0.0064458  -0.0125992  -0.0145796
    3  -0.0015987   0.0170477  -0.0219715  -0.0008063   0.0195566  -0.0110665
           55          56          57          58          59          60
    1   0.0098193   0.0164405  -0.0923248  -0.0117859   0.1075323   0.0412711
    2  -0.0204283   0.0136438  -0.0538287  -0.0097265   0.0726098   0.0003467
    3  -0.0042006   0.0086866  -0.0008141  -0.0119993   0.0324604  -0.0474878
           61          62          63          64          65          66
    1   0.0305103   0.0381913  -0.0500317  -0.0553161  -0.0013476  -0.0114012
    2   0.0187344   0.0195853  -0.0172009  -0.0294442  -0.0324688   0.0425239
    3   0.0004174  -0.0101729   0.0311479  -0.0049563  -0.0535092   0.0536780
           67          68          69          70          71          72
    1   0.0006319   0.0074807  -0.0108085   0.0179209   0.0031862   0.0005639
    2  -0.0615351   0.0559763   0.0334919   0.0412932   0.0324793  -0.0216105
    3  -0.0763388   0.0791200  -0.0571549  -0.0625817   0.0591094  -0.0579683
           73          74          75          76          77          78
    1   0.0035326   0.0222106  -0.0097939   0.0099340  -0.0273060  -0.0054166
    2  -0.0000889  -0.0203973   0.0203859   0.0125412  -0.0154239  -0.0147687
    3  -0.0047321  -0.0163317   0.0052563  -0.0160785  -0.0068958   0.0030867
           79          80          81          82          83          84
    1   0.0165353   0.0001667  -0.0013564   0.0176266  -0.0116666   0.0110619
    2   0.0151363   0.0033043   0.0005649  -0.0056711  -0.0100993   0.0178585
    3   0.0089884  -0.0213552   0.0050869  -0.0099295  -0.0081154  -0.0000561
           85          86          87          88          89          90
    1   0.0041080  -0.0193037   0.0456312  -0.0482389  -0.0118781   0.0161666
    2  -0.0200411   0.0020399   0.0276127   0.0203304   0.0367458  -0.0134204
    3   0.0028067   0.0082554   0.0218518  -0.0169907   0.0192663  -0.0213773
           91          92
    1  -0.0168290  -0.0016750
    2  -0.0082877   0.0287899
    3  -0.0008289   0.0011176
 Max gradient component =       1.260E-01
 RMS gradient           =       2.935E-02
 Computing fast CPCM-SWIG gradient
 Updating gradient with PCM contributions...
 -- total gradient after adding PCM contribution --
---------------------------------------------------
  Atom         X              Y              Z     
---------------------------------------------------
   1       0.017662      -0.020973       0.033344
   2      -0.005667       0.007136      -0.013101
   3       0.046253      -0.005575       0.008463
   4      -0.012162       0.002819       0.012951
   5      -0.005060       0.001687       0.005321
   6       0.011900       0.015223      -0.033288
   7       0.000492      -0.003606       0.005201
   8      -0.027904       0.000592       0.035108
   9      -0.020793       0.034538      -0.055638
  10      -0.019679       0.002754       0.034005
  11      -0.019537      -0.038441       0.000111
  12      -0.001706       0.014906      -0.003290
  13      -0.004062       0.003216      -0.005839
  14       0.004151       0.000450       0.004015
  15      -0.000405      -0.009406       0.013693
  16      -0.008422      -0.016176       0.007388
  17      -0.004671      -0.011086       0.003414
  18       0.001603       0.007861       0.004855
  19      -0.000257       0.002211       0.000938
  20       0.012090       0.019264       0.002680
  21       0.004137       0.002084      -0.010422
  22      -0.000188       0.001337       0.005857
  23       0.008115       0.002940       0.003613
  24      -0.008062      -0.008802       0.002366
  25       0.008998       0.001002      -0.001607
  26      -0.006433      -0.002428       0.006751
  27      -0.031274      -0.012653       0.011023
  28       0.002098       0.010851       0.004181
  29       0.002226      -0.007954      -0.002172
  30      -0.001920      -0.016647       0.000825
  31      -0.005193       0.008690      -0.004880
  32       0.030456       0.038848       0.018387
  33      -0.004282       0.014258       0.009359
  34      -0.078186       0.024189       0.006255
  35      -0.015420      -0.084129      -0.054575
  36       0.082923      -0.015052       0.038876
  37       0.003648       0.003329       0.003178
  38       0.009243       0.008265      -0.027447
  39      -0.011625      -0.006589       0.014077
  40      -0.004864       0.005086       0.006721
  41       0.006670       0.009984       0.004117
  42       0.000239      -0.019845       0.026631
  43      -0.012612      -0.003423      -0.013737
  44       0.005314       0.012620       0.002954
  45       0.000195       0.000010       0.004024
  46       0.001033      -0.004934      -0.001739
  47       0.000847      -0.005629       0.001005
  48      -0.005858       0.001468      -0.010908
  49       0.006503       0.000572       0.003871
  50      -0.004392      -0.001396      -0.002837
  51       0.003505      -0.001355       0.002532
  52      -0.006422       0.001495      -0.000304
  53      -0.000178       0.000143      -0.004449
  54       0.001170       0.004125       0.003672
  55      -0.000402       0.004006      -0.000701
  56      -0.003064      -0.001937      -0.004442
  57      -0.014244      -0.012987       0.005783
  58      -0.000979      -0.004366      -0.006985
  59       0.032722       0.018538       0.008767
  60      -0.001092      -0.003255      -0.003958
  61       0.014534      -0.000458      -0.011361
  62       0.007985       0.006200       0.010799
  63      -0.024884       0.016118       0.040016
  64      -0.016969      -0.020857      -0.037786
  65       0.002711      -0.005155      -0.011617
  66       0.042898       0.031765       0.010078
  67      -0.023823      -0.028853      -0.075852
  68       0.023744      -0.028841       0.039069
  69       0.003176       0.003831      -0.006378
  70      -0.024102       0.027082      -0.015400
  71      -0.000761       0.002885       0.005600
  72       0.036287       0.020482      -0.034445
  73      -0.012775       0.008964       0.004597
  74       0.005624       0.005725       0.001153
  75       0.000262      -0.017283      -0.001184
  76      -0.016620       0.005730      -0.003601
  77       0.005698       0.006333       0.007128
  78       0.007281      -0.009230      -0.005537
  79      -0.011942       0.000399       0.000072
  80       0.002014      -0.001129       0.004511
  81       0.000428      -0.004775       0.001540
  82      -0.003327       0.000993       0.001346
  83       0.005349       0.002326       0.001488
  84      -0.001164       0.008408      -0.001058
  85       0.000862       0.006888       0.003422
  86       0.001007      -0.005015      -0.004801
  87       0.007603       0.002009      -0.003324
  88      -0.005915       0.002019       0.003314
  89       0.010478      -0.001552      -0.008065
  90      -0.003602       0.002512      -0.012799
  91       0.008780       0.002037      -0.013002
  92       0.001986      -0.007413       0.008086
---------------------------------------------------
 Number of fixed atoms: 0
 Gradient time:  CPU 46698.59 s  wall 3071.15 s

 *****************************************************
             Starting BFGS Algorithm
 *****************************************************
            LIBOPT3 RUN PARAMETERS

  Geometry Optimization Coordinates :
	Delocalized Natural Internal Coordinates

  Step Length Selection Method :
	Eigenvector Following Algorithm

  Convergence Criteria :
	Max Gradient Component    	3.00000000e-04
	Max Displacement Component	1.20000000e-03
	Absolute Energy Difference	1.00000000e-06

  Initial Hessian :
	Approximate Hessian - Simple Internal Coordinate Scaled

  Type of Verification :
	Verify with final updated Hessian
 *****************************************************

	OPTIMIZATION CYCLE:	1

 Scaling Magnitude of Eigenvalues
 	Minimum: -25.00000000	 Maximum: 25.00000000
 270 Hessian Eigenvalues to form next step
   0.10000000   0.10000000   0.10000000   0.10000000   0.10000000
   0.10000000   0.10000000   0.10000000   0.10000000   0.10000000
   0.10000000   0.10000000   0.10000000   0.10000000   0.10000004
   0.10000004   0.10000014   0.10000030   0.10000102   0.10000109
   0.10000117   0.10000177   0.10000273   0.10000364   0.10000424
   0.10001426   0.10001471   0.10001858   0.10002336   0.10002753
   0.10003347   0.10005709   0.10007300   0.10007398   0.10010201
   0.10010721   0.10014754   0.10016759   0.10021888   0.10023480
   0.10033924   0.10071217   0.10082635   0.10142972   0.10179677
   0.10243760   0.10292068   0.10468037   0.10573037   0.10739418
   0.10860780   0.10984717   0.11029946   0.11148944   0.11209985
   0.11240882   0.11386150   0.11525389   0.11636179   0.11747572
   0.11860148   0.12042075   0.12066615   0.12120119   0.12205848
   0.12243192   0.12355635   0.12441149   0.12494175   0.12606227
   0.12689461   0.12697951   0.12713638   0.12773013   0.12876618
   0.12926828   0.12949997   0.12978731   0.13057080   0.13259897
   0.13325646   0.13414633   0.13569428   0.13610991   0.13711758
   0.14426186   0.14645172   0.14726054   0.14846578   0.14908312
   0.14994337   0.15166835   0.15196481   0.15203237   0.15249876
   0.15547982   0.15559998   0.15596700   0.15831988   0.15916975
   0.15934672   0.16001056   0.16200522   0.16264115   0.16319897
   0.16353885   0.16643936   0.16959941   0.17145385   0.17362907
   0.17498756   0.17747072   0.17779423   0.17899604   0.17953987
   0.17989364   0.18120522   0.18139702   0.18208574   0.18289329
   0.18314845   0.18393359   0.18431221   0.18504938   0.18670156
   0.18716151   0.18993338   0.19001961   0.19086400   0.19354158
   0.19709077   0.19784111   0.19849060   0.19903290   0.19948693
   0.19957317   0.19958207   0.19968240   0.19969462   0.19972717
   0.19978335   0.19982991   0.19986613   0.19989599   0.19991963
   0.19992299   0.19993504   0.19994330   0.19999156   0.19999401
   0.19999489   0.19999627   0.19999631   0.19999807   0.20000000
   0.20000000   0.20000000   0.20000000   0.20000000   0.20000000
   0.20000000   0.20000000   0.20000000   0.20099548   0.20224317
   0.21174779   0.21276285   0.22297806   0.23458726   0.26419583
   0.30520724   0.30915892   0.39815456   0.39965695   0.41546721
   0.42789770   0.43647147   0.44677297   0.45800821   0.46091647
   0.46492074   0.46730563   0.46882497   0.47772330   0.48565100
   0.49029216   0.49104555   0.49191038   0.49503533   0.49715626
   0.49814957   0.49902322   0.49957230   0.49969861   0.49997089
   0.49998129   0.50000000   0.50000000   0.50000000   0.50000000
   0.50000000   0.50000000   0.50000000   0.50000000   0.50000000
   0.50000000   0.50000000   0.50000000   0.50000000   0.50000000
   0.50000000   0.50000000   0.50000000   0.50000000   0.50000000
   0.50000000   0.50000000   0.50000000   0.50000000   0.50000000
   0.50000000   0.50000000   0.50000000   0.50000000   0.50000000
   0.50000000   0.50000000   0.50000000   0.50000000   0.50000000
   0.50000000   0.50000000   0.50000000   0.50000000   0.50000000
   0.50000000   0.50000000   0.50000000   0.50000000   0.50000000
   0.50000000   0.50000000   0.50000000   0.50000000   0.50000000
   0.50000000   0.50000000   0.50000000   0.50000000   0.50000000
   0.50000000   0.50000000   0.50000000   0.50000000   0.50000000
   0.50000000   0.50000000   0.50000000   0.50000000   0.50000000
   0.50000000   0.50000000   0.50000000   0.50000000   0.50150488
   0.50936221   0.51070204   0.51436733   0.51552702   0.52375149


 Minimum Search taking a RFO step
 Searching for Lambda that minimizes along all modes
	Value of Lambda   -0.13029508
[...]
    1   0.0264300   0.0027155  -0.0020324   0.0218259  -0.0167735   0.0133290
    2   0.0106065   0.0077319   0.0053347  -0.0085275  -0.0083207   0.0093170
    3   0.0147005  -0.0249757   0.0030815  -0.0095678  -0.0146473   0.0056423
           85          86          87          88          89          90
    1   0.0000295  -0.0236042   0.0405992  -0.0425694   0.0040622   0.0138303
    2  -0.0276126   0.0069602   0.0125163   0.0244132   0.0279268  -0.0021905
    3  -0.0029647   0.0098667   0.0264527  -0.0201812  -0.0259966  -0.0117790
           91          92
    1  -0.0044219  -0.0287213
    2  -0.0151278   0.0164977
    3   0.0237998  -0.0048182
 Max gradient component =       9.742E-02
 RMS gradient           =       2.579E-02
 Computing fast CPCM-SWIG gradient
 Updating gradient with PCM contributions...
 -- total gradient after adding PCM contribution --
---------------------------------------------------
  Atom         X              Y              Z     
---------------------------------------------------
   1       0.000078       0.000771       0.000350
   2      -0.000128      -0.000746      -0.000833
   3       0.000551       0.000057      -0.000187
   4      -0.000136       0.000001      -0.000028
   5       0.000033       0.000053       0.000196
   6      -0.000468      -0.000923       0.000170
   7       0.000036       0.000179       0.000186
   8      -0.000040      -0.000216       0.000290
   9      -0.000331       0.000179       0.000707
  10       0.000084      -0.000024      -0.000180
  11      -0.000747      -0.000165       0.000434
  12       0.000275       0.000265      -0.000412
  13       0.000099       0.000791       0.000429
  14      -0.000074      -0.000117      -0.000006
  15       0.000030       0.000011       0.000034
  16       0.000631      -0.000921      -0.000048
  17      -0.000024       0.000275       0.000082
  18      -0.000101       0.000356      -0.000076
  19      -0.000314       0.000004       0.000383
  20      -0.000183       0.000057      -0.000232
  21       0.000507       0.000111      -0.000422
  22      -0.000033      -0.000043       0.000100
  23      -0.000054       0.000054      -0.000047
  24      -0.000150       0.000130       0.000318
  25       0.000104      -0.000176      -0.000093
  26      -0.000132       0.000029      -0.000010
  27      -0.000433       0.000058       0.000160
  28      -0.000033      -0.000381       0.000287
  29       0.000034       0.000023      -0.000012
  30       0.000112       0.000933      -0.000218
  31       0.000316      -0.000130      -0.000143
  32       0.000094      -0.000281       0.001842
  33       0.000294       0.000125      -0.001119
  34      -0.000784       0.000079      -0.000718
  35       0.000216       0.000019       0.000486
  36       0.000774       0.000335      -0.000249
  37       0.000079      -0.000050       0.000033
  38       0.000017       0.000233      -0.000059
  39      -0.000077      -0.000115       0.000139
  40      -0.000008      -0.000098      -0.000004
  41      -0.000202       0.000182      -0.000048
  42       0.000059      -0.000310       0.000085
  43       0.000335      -0.000008      -0.000176
  44      -0.000276       0.000383      -0.000047
  45      -0.000094       0.000067       0.000085
  46       0.000137       0.000320       0.000191
  47       0.000111      -0.000110       0.000063
  48      -0.000013      -0.000080      -0.000068
  49       0.000099      -0.000051       0.000145
  50      -0.000063      -0.000110       0.000013
  51      -0.000024      -0.000141      -0.000125
  52      -0.000033       0.000053      -0.000348
  53      -0.000011      -0.000052      -0.000091
  54      -0.000038      -0.000007      -0.000016
  55       0.000019      -0.000030       0.000096
  56       0.000034      -0.000003       0.000017
  57       0.000015      -0.000064       0.000040
  58      -0.000127       0.000062       0.000230
  59      -0.000107      -0.000035       0.000010
  60      -0.000160      -0.000329      -0.000076
  61       0.000327       0.000076      -0.000062
  62       0.000191       0.000108       0.000036
  63      -0.000107      -0.000204      -0.000453
  64       0.000167       0.000222       0.000470
  65      -0.000055       0.000049      -0.000036
  66       0.000102      -0.000089       0.000274
  67      -0.000479      -0.000815       0.000314
  68       0.000361      -0.000025       0.000616
  69       0.000130       0.000303       0.000231
  70       0.000047      -0.000067      -0.000565
  71      -0.000086       0.000001       0.000018
  72      -0.000120       0.000050      -0.000102
  73      -0.000292       0.000892      -0.001428
  74      -0.000236      -0.000178       0.000442
  75       0.000099       0.000103      -0.000166
  76       0.000195       0.000264      -0.000152
  77      -0.000010      -0.000062      -0.000008
  78      -0.000021       0.000182       0.000217
  79       0.000045       0.000041      -0.000177
  80      -0.000135      -0.000141      -0.000072
  81       0.000188      -0.000084       0.000064
  82      -0.000066      -0.000077      -0.000017
  83       0.000011       0.000056       0.000022
  84      -0.000100       0.000169      -0.000066
  85       0.000157      -0.000023      -0.000029
  86      -0.000053      -0.000178      -0.000030
  87       0.000007       0.000005      -0.000033
  88       0.000026      -0.000070      -0.000040
  89      -0.000361      -0.000383      -0.000196
  90       0.000181      -0.000998       0.000049
  91       0.000155       0.000098      -0.000110
  92      -0.000042       0.000296      -0.000522
---------------------------------------------------
 Number of fixed atoms: 0
 Gradient time:  CPU 21378.60 s  wall 1437.30 s

     Step 37	:
        Energy is -3553.5975792262
                            Maximum         Tolerance       Converged?
         Gradient           5.77302317e-04	3.00000000e-04	false
         Displacement       2.31886711e-02	1.20000000e-03	false
         Energy change      9.88215752e-05	1.00000000e-06	false


	OPTIMIZATION CYCLE:	38

 Scaling Magnitude of Eigenvalues
 	Minimum: -25.00000000	 Maximum: 25.00000000
 270 Hessian Eigenvalues to form next step
   0.00232172   0.00457755   0.00566464   0.00921517   0.01523165
   0.02772346   0.03441861   0.05020339   0.07929868   0.09884142
   0.10000055   0.10000086   0.10000218   0.10000230   0.10000366
   0.10000439   0.10000519   0.10000734   0.10001323   0.10001479
   0.10002012   0.10002229   0.10002279   0.10002637   0.10003198
   0.10003730   0.10004683   0.10006197   0.10006490   0.10008466
   0.10008850   0.10009356   0.10011704   0.10015117   0.10018487
   0.10019626   0.10021945   0.10024605   0.10031776   0.10049552
   0.10054691   0.10080390   0.10114252   0.10183517   0.10199284
   0.10238023   0.10293407   0.10315484   0.10333683   0.10413818
   0.10546297   0.10674554   0.10775817   0.10958455   0.11153467
   0.11194412   0.11302871   0.11447944   0.11628823   0.11743523
   0.11785172   0.12054364   0.12105562   0.12138618   0.12217946
   0.12274056   0.12392168   0.12450214   0.12494604   0.12617693
   0.12638740   0.12691112   0.12791419   0.12830911   0.12931585
   0.12964812   0.12992700   0.13044013   0.13135681   0.13262261
   0.13424535   0.13517648   0.13635081   0.13701617   0.13899250
   0.14514551   0.14812380   0.14892910   0.14970681   0.15070772
   0.15195207   0.15205039   0.15231351   0.15397359   0.15518922
   0.15581726   0.15593780   0.15773598   0.15852969   0.15992065
   0.16016067   0.16208906   0.16267864   0.16295648   0.16372688
   0.16642247   0.17048644   0.17105600   0.17342865   0.17489013
   0.17741266   0.17754461   0.17819704   0.17914668   0.17961753
   0.18007762   0.18160567   0.18211199   0.18335373   0.18425638
   0.18507606   0.18621068   0.18706557   0.18924326   0.19087758
   0.19186537   0.19334350   0.19537436   0.19645494   0.19698835
   0.19784688   0.19877246   0.19912263   0.19929526   0.19935796
   0.19955440   0.19961602   0.19971180   0.19979485   0.19985463
   0.19987548   0.19992899   0.19993862   0.19994759   0.20000575
   0.20001921   0.20002404   0.20018440   0.20028508   0.20038257
   0.20040510   0.20161372   0.20176259   0.20350574   0.20484578
   0.20715918   0.20727020   0.20937986   0.21676387   0.21967673
   0.22017659   0.22429459   0.23346779   0.25746687   0.26405738
   0.27580080   0.28713214   0.29060830   0.29981171   0.31068916
   0.32167993   0.36839042   0.38577460   0.39739643   0.40257205
   0.41569670   0.42870154   0.43471927   0.44524083   0.44681225
   0.45466896   0.46008780   0.46516046   0.46850280   0.47145913
   0.47607895   0.48190805   0.48556299   0.48911498   0.49233959
   0.49326983   0.49445864   0.49550309   0.49738530   0.49768252
   0.49852991   0.49878928   0.49911758   0.49969476   0.49974550
   0.49980949   0.49994209   0.49995095   0.49996925   0.49998773
   0.49999176   0.49999885   0.50000000   0.50000000   0.50000000
   0.50000000   0.50000000   0.50000000   0.50000000   0.50000000
   0.50000000   0.50000000   0.50000000   0.50000000   0.50000000
   0.50000000   0.50000000   0.50000000   0.50000000   0.50000000
   0.50000000   0.50000000   0.50000000   0.50000000   0.50000000
   0.50000000   0.50000000   0.50000000   0.50000000   0.50000000
   0.50000000   0.50000000   0.50000884   0.50002150   0.50003300
   0.50005186   0.50006658   0.50010102   0.50012236   0.50023456
   0.50027084   0.50028353   0.50039678   0.50050598   0.50078265
   0.50101832   0.50141173   0.50170270   0.50251581   0.50341610
   0.50458756   0.50497298   0.50809494   0.51192255   0.51243726
   0.51549448   0.51973416   0.52191657   0.52940894   0.54450916
   0.54618889   0.55647193   0.57327707   0.60760781   0.65537382


 Minimum Search taking a RFO step
 Searching for Lambda that minimizes along all modes
	Value of Lambda   -0.00012142
	Norm  of Stepsize  0.11093393
	RMS   of Stepsize  0.00675122

	Performing Iterative Coordinate Back-Transformation

	  Starting from Previous Position

	  iter:	0	rms: 1.2696554786e-02	maxdev: 7.1841059122e-02
	  iter:	1	rms: 1.4243606785e-04	maxdev: 6.2549578825e-04
	  iter:	2	rms: 9.0127166683e-09	maxdev: 6.0912030031e-08	 Success!

	Finished Iterative Coordinate Back-Transformation
 Adding empirical dispersion correction 
 ----------------------------------------------------------------
 Doing -D3(BJ) with
 s6  =   1.00000e+00
 s8  =   1.98890e+00
 a1  =   3.98100e-01
 a2  =   4.42110e+00
 -D3 energy without 3body term =     -2.2231760480e-01 hartrees
 ----------------------------------------------------------------
             Standard Nuclear Orientation (Angstroms)
    I     Atom           X                Y                Z
 ----------------------------------------------------------------
    1      C       2.9547686418    -1.4498061610    -2.0313799370
    2      C       4.1752150366    -1.1245271625    -2.6247880136
    3      C       5.3827750835    -1.7347629064    -2.1973219433
    4      C       5.3313383258    -2.7236219195    -1.2027306958
    5      C       4.1198455567    -3.0624527013    -0.5878543556
    6      C       2.9263395733    -2.4191691664    -0.9579856450
    7      H       4.1651977237    -0.3705495683    -3.4171268043
    8      O       1.7928766819    -0.8960544480    -2.3579509956
    9      C       6.7269564391    -1.2512812943    -2.6058418618
   10      O       7.7687516586    -1.8786074005    -2.3562570732
   11      N       6.7695564277    -0.0188913094    -3.2188867334
   12      H       5.8917862169     0.4905878166    -3.2251899048
   13      C       7.7416425028     1.8104811508    -1.8794761905
   14      H       6.8200658929     2.3943132129    -2.0573063024
   15      H       8.5746884897     2.5339760190    -1.8521035843
   16      C       7.5915534165     1.1020432127    -0.5316699227
   17      H       8.5846537772     0.7411614581    -0.1821490996
   18      H       6.9658547880     0.2052362845    -0.6561899916
   19      N       6.9081563493     1.9355297677     0.4542571430
   20      H       7.4744797117     2.7656389903     0.6485183957
   21      C       5.8751113955     2.0653939981     2.7053993350
   22      H       5.7224019294     1.4630533358     3.6179624586
   23      H       6.4819815857     2.9379524853     3.0055576382
   24      C       6.6718939709     1.2233448618     1.7089777084
   25      H       7.6153002396     0.8853172836     2.1919021165
   26      H       6.1116624950     0.3043449083     1.4627264017
   27      C       4.5225724515     2.5713806679     2.1893616911
   28      H       4.0135456702     3.1121797309     3.0061231794
   29      H       4.6815687265     3.2913679550     1.3695266035
   30      C       3.6029409998     1.4629532332     1.6833583747
   31      H       4.0306830384     0.9857701260     0.7862182600
   32      N       2.2916510872     2.0110891757     1.3594436115
   33      H       2.1425675890     3.0049188141     1.4963035107
   34      C       1.3522373183     1.3291189640     0.6543642691
   35      O       1.6090551962     0.1231685258     0.3367954877
   36      C       0.1148551400     2.0003016711     0.3636854580
   37      H      -0.1144303978     2.9153476050     0.9118126795
   38      C      -2.2116413480     2.1346583357    -0.5182677863
   39      H      -2.7594752929     1.6483912094     0.3066309688
   40      H      -2.1452367509     3.2069071622    -0.2896715411
   41      C      -2.9903376136     1.9756967588    -1.8137928393
   42      O      -2.9061096036     2.8060560970    -2.7273388208
   43      N      -3.7893673942     0.8839257556    -1.8698858954
   44      C      -4.7109265535     0.6095583420    -2.9627666524
   45      H      -3.7647906345     0.2238189621    -1.0968819762
   46      C      -6.1651135978     0.5844462637    -2.4797235464
   47      H      -4.4504348797    -0.3582522712    -3.4202963307
   48      H      -4.5533246293     1.3982405842    -3.7115565056
   49      C      -6.6449115616     1.9227560895    -1.9137494362
   50      H      -6.8098828359     0.2789923809    -3.3231340735
   51      H      -6.2640191693    -0.2048402951    -1.7177191953
   52      C      -7.9574865698     1.8242140528    -1.1158205764
   53      H      -6.7819903635     2.6480598031    -2.7360381631
   54      H      -5.8614467913     2.3429435382    -1.2619564512
   55      H      -8.2717552244     2.8449144168    -0.8302809638
   56      H      -8.7525931692     1.4207152541    -1.7673973379
   57      C      -5.8723968495    -1.7500003029     0.6117930983
   58      C      -4.4779010119    -2.5228139865    -1.2732933320
   59      O      -6.9160253117    -1.8965830557    -0.0605552318
   60      C      -4.5305308332    -1.9938157363     0.0250132228
   61      C      -3.2598132045    -2.6573525141    -1.9472319366
   62      C      -3.3165462076    -1.6398308778     0.6728325263
   63      C      -2.0576189888    -2.2612533242    -1.3367038231
   64      C      -2.0847956841    -1.7920860034     0.0316456270
   65      H      -3.3002338017    -1.2102613984     1.6774571884
   66      O      -0.8836412249    -2.2691805376    -1.9354695405
   67      C      -0.8184119533     1.5085669465    -0.5357544790
   68      O      -0.6362794319     0.5330613321    -1.3560821745
   69      H       4.0922778052    -3.7977308800     0.2216019702
   70      O       1.7584372811    -2.6209747657    -0.3784323651
   71      H      -3.2306083352    -3.0301083981    -2.9748368238
   72      O      -0.9145507830    -1.4829432006     0.5750226642
   73      Fe      0.4502313259    -1.1701605821    -0.8892092074
   74      N      -7.9319963118     1.0047732544     0.1004860332
   75      H      -7.7814227364     0.0256301291    -0.1564250241
   76      N      -5.9322951335    -1.3337896083     1.9077207997
   77      H      -5.0620935222    -1.1624010409     2.3965807985
   78      C      -7.1369255438    -0.7486150501     2.4783030862
   79      H      -7.9830628079    -1.1414787780     1.9007034885
   80      H      -7.2474406532    -1.0962395491     3.5170224649
   81      C      -7.1269708308     0.7879362780     2.4430764053
   82      H      -8.0947150116     1.1423636033     2.8384057811
   83      H      -6.3397102410     1.1586800512     3.1232785553
   84      C      -6.8911564349     1.3902382858     1.0558081918
   85      H      -6.9015350392     2.4901279169     1.1463141000
   86      H      -5.8700083680     1.1196448045     0.7148216239
   87      H      -5.4143781678    -2.7901182906    -1.7624889313
   88      H       6.2659627810    -3.1819183497    -0.8765351431
   89      H       3.4974504589     0.6683151953     2.4446051448
   90      C       7.9378471864     0.8445529534    -3.0589885084
   91      H       8.1027454206     1.4147958197    -3.9862494604
   92      H       8.8057192183     0.1888807033    -2.9074592335
 ----------------------------------------------------------------
 Nuclear Repulsion Energy =        7399.99179554 hartrees
 There are      194 alpha and      189 beta electrons
No default van der Waals radius is available for Z = 26
	Found R = 2.4400 A in the $van_der_waals section
 Discretize the solute cavity surface with Lebedev spheres
	Using 110 Lebedev grid points for each H atom
	Using 194 Lebedev grid points for other atoms
	Atomic van der Waals radii (Bondi set) will be scaled by 1.20
 Using smooth SwiG surface discretization
 Remove points where switching function is < 1.0e-08
 Keep 5415 surface tesserae and discard 8821 interior tesserae
 Molecular Surface Area = 669.529 Angst**2

 Applying Cartesian multipole field
    Component          Value
    ---------          -----
     (2,0,0)        1.00000E-12
     (0,2,0)        2.00000E-11
     (0,0,2)       -3.00000E-11
 Nucleus-field energy     =-8.5770209775e-09 hartrees
 Read the previous MOs as SCF guess

 -----------------------------------------------------------------------
  General SCF calculation program by
  Eric Jon Sundstrom, Paul Horn, Yuezhi Mao, Dmitri Zuev, Alec White,
  David Stuck, Shaama M.S., Shane Yost, Joonho Lee, David Small,
  Daniel Levine, Susi Lehtola, Hugh Burton, Evgeny Epifanovsky,
  Bang C. Huynh
 -----------------------------------------------------------------------
 Requested basis set is non-standard
 There are 432 shells and 930 basis functions
 Exchange:     0.2000 Hartree-Fock + 0.0800 Slater + 0.7200 B88
 Correlation:  0.1900 VWN1RPA + 0.8100 LYP
 Using SG-1 standard quadrature grid
 Dispersion:   Grimme D3
 A cutoff of  1.0D-12 yielded  57244 shell pairs
 There are    247132 function pairs (    273270 Cartesian)
 Smallest overlap matrix eigenvalue = 2.17E-04
 A unrestricted SCF calculation will be
 performed using DIIS
 SCF converges when DIIS error is below 1.0e-08
 ---------------------------------------
  Cycle       Energy         DIIS error
 ---------------------------------------
    1   -3553.3106708893      1.91e-04  
    2   -3553.4840370215      3.74e-04  
    3   -3553.5752539591      1.64e-04  
    4   -3553.5860182628      1.07e-04  
    5   -3553.5902281045      7.52e-05  
    6   -3553.5938350870      5.29e-05  
    7   -3553.5964496452      3.02e-05  
    8   -3553.5974925345      1.14e-05  
    9   -3553.5976523274      3.44e-06  
   10   -3553.5976636503      9.34e-07  
   11   -3553.5976643830      2.94e-07  
   12   -3553.5976644547      1.49e-07  
   13   -3553.5976644795      8.31e-08  
   14   -3553.5976644888      4.34e-08  
   15   -3553.5976644906      1.98e-08  
   16   -3553.5976644914      8.31e-09  Convergence criterion met
 ---------------------------------------
 SCF time:   CPU 29427.40s  wall 2187.00s 
<S^2> =          8.758239888

************** Final PCM Free Energy Summary **************
 G_electrostatic  =      -0.28802063 hartree =    -180.73567487 kcal/mol
 G_cavitation     =       0.00000000 hartree =       0.00000000 kcal/mol
 G_dispersion     =       0.0000